/*--------------------------------*- C++ -*----------------------------------*\
| =========                 |                                                 |
| \\      /  F ield         | OpenFOAM: The Open Source CFD Toolbox           |
|  \\    /   O peration     | Version:  v2012                                 |
|   \\  /    A nd           | Website:  www.openfoam.com                      |
|    \\/     M anipulation  |                                                 |
\*---------------------------------------------------------------------------*/
FoamFile
{
    version     2.0;
    format      ascii;
    class       volScalarField;
    location    "25";
    object      p;
}
// * * * * * * * * * * * * * * * * * * * * * * * * * * * * * * * * * * * * * //

dimensions      [0 2 -2 0 0 0 0];


internalField   nonuniform List<scalar> 
2200
(
0.415439
0.393941
0.378034
0.362368
0.347759
0.335241
0.324883
0.316773
0.311047
0.308
0.308338
0.311969
0.318137
0.326555
0.337136
0.349818
0.364538
0.380301
0.396261
0.417776
0.34787
0.344613
0.341695
0.337581
0.332121
0.325652
0.319023
0.313036
0.308469
0.305995
0.306315
0.309427
0.314457
0.320789
0.327663
0.334299
0.339898
0.34407
0.347002
0.350294
0.307931
0.308157
0.310219
0.311573
0.311982
0.311134
0.309161
0.306478
0.303864
0.302261
0.302636
0.304915
0.308029
0.311081
0.313306
0.314301
0.313973
0.312845
0.310996
0.310761
0.285454
0.286902
0.28953
0.292016
0.294463
0.296483
0.297654
0.297889
0.297502
0.29707
0.297523
0.298696
0.299658
0.299856
0.299015
0.297249
0.294996
0.292618
0.289985
0.288572
0.271254
0.273231
0.276061
0.278895
0.281746
0.284573
0.286996
0.288788
0.289939
0.290568
0.291081
0.291333
0.290873
0.289599
0.287563
0.285028
0.282376
0.279616
0.276824
0.274876
0.263971
0.265567
0.267778
0.270334
0.273022
0.275682
0.278215
0.280576
0.282478
0.283762
0.284371
0.284158
0.28308
0.281322
0.279237
0.276903
0.274446
0.272031
0.269895
0.268312
0.260588
0.261582
0.262885
0.264833
0.267053
0.269246
0.271418
0.273665
0.275797
0.277479
0.278215
0.277841
0.27671
0.275207
0.273563
0.271767
0.269841
0.268089
0.266884
0.265894
0.258342
0.258983
0.259667
0.261046
0.262732
0.264454
0.26617
0.267991
0.269871
0.271603
0.272479
0.272334
0.271662
0.270767
0.269711
0.2685
0.267178
0.266049
0.265483
0.264836
0.255655
0.256098
0.256565
0.257686
0.259081
0.260555
0.262049
0.263571
0.265134
0.266673
0.267773
0.268191
0.268118
0.267716
0.267066
0.266167
0.265193
0.264359
0.264025
0.263579
0.251944
0.252185
0.252641
0.253812
0.255265
0.256858
0.258522
0.260163
0.261755
0.263305
0.264693
0.265567
0.265838
0.265572
0.264911
0.264041
0.263129
0.262311
0.261992
0.261734
0.247887
0.247982
0.248434
0.24959
0.251053
0.252748
0.254651
0.256664
0.258691
0.260637
0.26233
0.263353
0.263586
0.263271
0.262622
0.26186
0.261016
0.26027
0.259987
0.259882
0.244042
0.244053
0.244459
0.245412
0.246688
0.248237
0.250051
0.252135
0.254518
0.256983
0.259074
0.260337
0.260788
0.260819
0.260561
0.26009
0.259547
0.259085
0.258899
0.258877
0.240268
0.24019
0.240569
0.241292
0.242397
0.243761
0.245363
0.247315
0.24973
0.252527
0.255171
0.257108
0.258347
0.259003
0.259239
0.259203
0.259054
0.258884
0.258781
0.258773
0.236363
0.236282
0.236589
0.237242
0.23834
0.239732
0.24141
0.243492
0.246056
0.249177
0.252429
0.255073
0.256949
0.258114
0.258761
0.259097
0.259236
0.259257
0.259235
0.259228
0.232085
0.23208
0.232336
0.233
0.234179
0.235722
0.237705
0.24023
0.243333
0.247109
0.251093
0.25433
0.256603
0.258117
0.259149
0.259782
0.260097
0.260239
0.260282
0.260278
0.227024
0.226996
0.227304
0.228037
0.229253
0.230907
0.233153
0.236155
0.239984
0.244726
0.249737
0.253819
0.256684
0.258719
0.260174
0.261092
0.261643
0.261967
0.262081
0.262066
0.220991
0.220947
0.221281
0.222021
0.223247
0.22503
0.227546
0.230987
0.235558
0.241392
0.247704
0.252981
0.256817
0.259598
0.261592
0.262951
0.263839
0.264357
0.264537
0.2645
0.21347
0.213422
0.213787
0.214682
0.216162
0.218293
0.221302
0.225439
0.230974
0.238091
0.245929
0.252568
0.257519
0.261107
0.263687
0.265472
0.26667
0.267355
0.267607
0.267557
0.204537
0.204472
0.204911
0.206006
0.20787
0.210599
0.214429
0.219644
0.226563
0.235378
0.244997
0.253153
0.25921
0.263622
0.266773
0.268961
0.270429
0.271247
0.27155
0.271485
0.193693
0.193646
0.194243
0.19566
0.198037
0.201507
0.206367
0.212985
0.221727
0.232733
0.244537
0.254492
0.261834
0.267179
0.270964
0.273601
0.275341
0.276305
0.27668
0.276604
0.180427
0.180333
0.181082
0.182905
0.185969
0.190424
0.196652
0.205102
0.216126
0.229821
0.244301
0.256399
0.2653
0.27177
0.276376
0.279598
0.281733
0.282913
0.283348
0.28324
0.163844
0.163798
0.164855
0.167237
0.171221
0.177052
0.185167
0.196002
0.209912
0.226861
0.244484
0.259079
0.269811
0.277614
0.283204
0.287108
0.289664
0.291069
0.291594
0.291463
0.143046
0.142939
0.144397
0.147663
0.153081
0.160966
0.171677
0.18574
0.203301
0.224143
0.245417
0.262863
0.275666
0.284967
0.291632
0.296326
0.299448
0.301165
0.301776
0.301587
0.115605
0.11578
0.118116
0.122891
0.130603
0.141545
0.156051
0.17436
0.196419
0.221878
0.247302
0.26788
0.282919
0.293901
0.301859
0.307498
0.311231
0.313243
0.313938
0.313715
0.079129
0.0795685
0.083462
0.091132
0.10272
0.118558
0.138237
0.161899
0.189395
0.220159
0.250148
0.274142
0.291655
0.304475
0.313845
0.320595
0.325151
0.327643
0.328458
0.328098
0.0302321
0.0307914
0.0382494
0.0512721
0.0693011
0.0919631
0.118389
0.148712
0.182561
0.219214
0.254127
0.2817
0.301798
0.316612
0.327587
0.335622
0.341103
0.343977
0.344773
0.344329
-0.0356849
-0.0325811
-0.0165403
0.00552967
0.03235
0.0631781
0.0975184
0.135373
0.176274
0.21957
0.260098
0.291984
0.315467
0.333034
0.346285
0.356298
0.363465
0.367043
0.367841
0.367571
-0.111906
-0.1012
-0.0739501
-0.0420563
-0.005525
0.0341908
0.0766888
0.1223
0.170547
0.220908
0.267707
0.304697
0.332285
0.353316
0.369589
0.382143
0.39177
0.396923
0.398631
0.398948
-0.178451
-0.162137
-0.128148
-0.088001
-0.0423674
0.00591636
0.0565107
0.109837
0.165377
0.22267
0.275513
0.317247
0.3483
0.372177
0.390774
0.405202
0.415989
0.42248
0.424737
0.424769
-0.227846
-0.213582
-0.174379
-0.12848
-0.0758605
-0.0204788
0.037422
0.0979761
0.160437
0.224255
0.282586
0.328262
0.362196
0.388151
0.408411
0.424092
0.435477
0.44205
0.444331
0.444509
-0.268535
-0.255233
-0.212798
-0.163144
-0.105336
-0.0443132
0.0198013
0.0866854
0.155325
0.225016
0.288344
0.337576
0.373847
0.401117
0.421895
0.437809
0.449561
0.456392
0.458965
0.459188
-0.303713
-0.29011
-0.245467
-0.193105
-0.131271
-0.0656906
0.00357751
0.0758012
0.149866
0.225005
0.292927
0.345194
0.382914
0.410876
0.432249
0.448586
0.460409
0.467593
0.470354
0.470561
-0.334464
-0.32078
-0.274213
-0.21959
-0.15445
-0.0851033
-0.0115429
0.0652789
0.144238
0.224347
0.296252
0.350747
0.38983
0.418735
0.440391
0.456871
0.46902
0.476304
0.479223
0.479393
-0.362189
-0.348478
-0.300256
-0.243464
-0.175468
-0.103028
-0.0258524
0.0549808
0.138274
0.222637
0.298161
0.355241
0.395962
0.425507
0.44765
0.464373
0.476414
0.483957
0.48654
0.48644
-0.387589
-0.373969
-0.324443
-0.265474
-0.194868
-0.119836
-0.0396022
0.044693
0.131787
0.22011
0.299411
0.359257
0.401242
0.43184
0.454437
0.471226
0.483198
0.490466
0.493184
0.493148
-0.411572
-0.397654
-0.34716
-0.286192
-0.213218
-0.135908
-0.0530265
0.0342812
0.124785
0.217021
0.300204
0.362823
0.40671
0.438173
0.461074
0.477838
0.489829
0.49699
0.499737
0.49982
-0.434131
-0.420044
-0.368803
-0.306008
-0.231002
-0.151574
-0.0662926
0.0236987
0.117344
0.21325
0.300221
0.365976
0.412053
0.444475
0.467829
0.48478
0.49675
0.503698
0.506514
0.506592
-0.455432
-0.441356
-0.389554
-0.325265
-0.248528
-0.167088
-0.0795534
0.0129151
0.109494
0.20893
0.299952
0.369104
0.417052
0.450713
0.474746
0.49191
0.50394
0.510868
0.513475
0.513534
-0.47596
-0.46172
-0.40956
-0.344092
-0.265929
-0.182614
-0.0929383
0.00186067
0.101158
0.203929
0.298624
0.371041
0.421718
0.457278
0.482037
0.499408
0.511352
0.51797
0.520552
0.520548
-0.496197
-0.481381
-0.428936
-0.362472
-0.283158
-0.198193
-0.106557
-0.00960941
0.0921499
0.197855
0.296212
0.372404
0.426395
0.463952
0.489827
0.507384
0.519094
0.525514
0.52776
0.527621
-0.516135
-0.500512
-0.447751
-0.380365
-0.300115
-0.213772
-0.120442
-0.0215455
0.0824696
0.191028
0.293056
0.373025
0.430448
0.470841
0.498318
0.516268
0.527347
0.532905
0.534818
0.534597
-0.535625
-0.519259
-0.46607
-0.397754
-0.31669
-0.229234
-0.134503
-0.0339144
0.0721037
0.183034
0.287908
0.372052
0.433863
0.477792
0.507685
0.526299
0.53636
0.540728
0.541713
0.541398
-0.554478
-0.537564
-0.483889
-0.414656
-0.332848
-0.244489
-0.148648
-0.04671
0.0609829
0.173948
0.282153
0.370833
0.436606
0.484719
0.517945
0.538338
0.547598
0.548162
0.547443
0.547827
-0.572684
-0.555392
-0.501187
-0.431074
-0.348565
-0.259459
-0.162746
-0.0597066
0.0494213
0.164542
0.275503
0.367214
0.437775
0.491005
0.528854
0.552521
0.562525
0.558875
0.553685
0.551325
-0.5902
-0.572601
-0.517906
-0.447001
-0.363839
-0.274081
-0.176642
-0.0727184
0.0376443
0.154417
0.267101
0.362045
0.437195
0.495915
0.540053
0.569265
0.58409
0.575237
0.569967
0.574701
-0.607052
-0.589157
-0.53399
-0.462396
-0.37864
-0.288302
-0.190264
-0.0856327
0.0256987
0.143546
0.257931
0.355591
0.43449
0.49879
0.549896
0.587302
0.611483
0.594062
0.549472
0.504546
-0.623164
-0.605038
-0.549458
-0.477324
-0.393095
-0.302283
-0.203765
-0.0986016
0.0133173
0.132042
0.247685
0.346633
0.428408
0.49815
0.556928
0.605298
0.64477
0.655487
0.675414
0.726099
-0.638507
-0.620323
-0.564402
-0.491905
-0.407371
-0.316258
-0.217473
-0.112105
2.81196e-05
0.119149
0.235311
0.335021
0.418609
0.491694
0.553733
0.603697
0.635829
0.639686
0.612437
0.620413
-0.653039
-0.634962
-0.578773
-0.506072
-0.421386
-0.330164
-0.23133
-0.125999
-0.013986
0.105005
0.22103
0.320293
0.403005
0.475347
0.535759
0.580663
0.585268
0.545879
0.490085
0.481213
-0.666798
-0.648971
-0.592574
-0.519822
-0.435129
-0.343996
-0.245321
-0.140294
-0.0287993
0.0895446
0.204787
0.302836
0.38241
0.448258
0.501299
0.519604
0.491003
0.422457
0.351869
0.339561
-0.67981
-0.662332
-0.605824
-0.533174
-0.448612
-0.357757
-0.259446
-0.154963
-0.0442606
0.0728587
0.186519
0.28164
0.355245
0.408154
0.437029
0.428876
0.381394
0.282243
0.196184
0.179224
-0.692538
-0.675472
-0.618922
-0.546499
-0.462178
-0.371727
-0.273921
-0.170171
-0.0605931
0.0547849
0.166146
0.257277
0.323837
0.360782
0.355429
0.321279
0.21729
0.0959983
-0.010849
-0.0339587
-0.705862
-0.689148
-0.632555
-0.560414
-0.476386
-0.386362
-0.289138
-0.186264
-0.0780055
0.0352917
0.143389
0.229658
0.287598
0.302203
0.264461
0.178672
0.0210843
-0.132043
-0.259896
-0.284889
-0.720279
-0.703812
-0.64704
-0.57515
-0.491414
-0.401775
-0.305151
-0.203232
-0.0964878
0.0141438
0.117953
0.198592
0.24544
0.234079
0.172505
0.0210288
-0.185564
-0.403546
-0.586541
-0.632682
-0.735858
-0.719483
-0.662418
-0.590719
-0.507229
-0.417932
-0.321929
-0.221076
-0.116059
-0.0083635
0.0904646
0.165924
0.197978
0.153105
0.0570482
-0.140833
-0.385283
-0.687737
-1.02049
-1.16294
-0.752651
-0.736323
-0.678785
-0.607192
-0.523882
-0.4349
-0.339535
-0.239817
-0.136618
-0.0320528
0.0609049
0.129994
0.146118
0.0665232
-0.080292
-0.303463
-0.55663
-0.922793
-1.53495
-2.12001
-0.770657
-0.754299
-0.69619
-0.624619
-0.541379
-0.452664
-0.357921
-0.259358
-0.158093
-0.056818
0.0303428
0.0910559
0.0907849
-0.012419
-0.21649
-0.474717
-0.69989
-0.963753
-1.56653
-3.17319
-0.789937
-0.773512
-0.714695
-0.643101
-0.559862
-0.471412
-0.377324
-0.279993
-0.180763
-0.0828093
-0.00119715
0.0502658
0.0299754
-0.0755831
-0.319004
-0.589814
-0.759621
-0.820097
-0.844171
-1.2532
-0.810409
-0.793963
-0.734473
-0.662929
-0.579685
-0.491572
-0.398278
-0.302342
-0.205385
-0.111396
-0.0352746
0.0069972
-0.0322005
-0.125813
-0.375495
-0.614012
-0.746085
-0.768285
-0.725263
-0.772234
-0.832047
-0.81555
-0.755497
-0.684118
-0.60087
-0.513218
-0.420876
-0.326549
-0.232221
-0.142804
-0.0717926
-0.039484
-0.0891559
-0.179004
-0.412972
-0.607976
-0.70774
-0.716435
-0.761348
-0.775749
-0.854703
-0.837994
-0.777749
-0.706686
-0.623369
-0.536301
-0.445059
-0.352562
-0.261167
-0.176334
-0.110084
-0.0864927
-0.140172
-0.238867
-0.449231
-0.607013
-0.693477
-0.652877
-0.679347
-0.683325
-0.878145
-0.861037
-0.801117
-0.730444
-0.646967
-0.560682
-0.470686
-0.38013
-0.291903
-0.211704
-0.150158
-0.136697
-0.187532
-0.309074
-0.489363
-0.609855
-0.6746
-0.702565
-0.685971
-0.693417
-0.901812
-0.884449
-0.825553
-0.755194
-0.671456
-0.586146
-0.497443
-0.408968
-0.324291
-0.248853
-0.191266
-0.19063
-0.231131
-0.375819
-0.538569
-0.630552
-0.636437
-0.697455
-0.66523
-0.675219
-0.925315
-0.907988
-0.850522
-0.780289
-0.696457
-0.612344
-0.524984
-0.438526
-0.3577
-0.286874
-0.231815
-0.243012
-0.284437
-0.433638
-0.569983
-0.661059
-0.633534
-0.671941
-0.659318
-0.661186
-0.948124
-0.931214
-0.875126
-0.805157
-0.721696
-0.638833
-0.552715
-0.468229
-0.391281
-0.325433
-0.271117
-0.294264
-0.346181
-0.479469
-0.577064
-0.654917
-0.673225
-0.65569
-0.6627
-0.656988
-0.969646
-0.953454
-0.898515
-0.829012
-0.746692
-0.664932
-0.579972
-0.497402
-0.423917
-0.363539
-0.308387
-0.339901
-0.417499
-0.540726
-0.573096
-0.584314
-0.671679
-0.633424
-0.658543
-0.653009
-0.988838
-0.973681
-0.920026
-0.851194
-0.770793
-0.689777
-0.605956
-0.525056
-0.454069
-0.400072
-0.343249
-0.378978
-0.490087
-0.618187
-0.596542
-0.465288
-0.566431
-0.595449
-0.627677
-0.640033
-1.00477
-0.990976
-0.939052
-0.871148
-0.792776
-0.712262
-0.629608
-0.550375
-0.480617
-0.433042
-0.378907
-0.407217
-0.56392
-0.728686
-0.73433
-0.664947
-0.691261
-0.705013
-0.724378
-0.72267
-1.01625
-1.00415
-0.954634
-0.887954
-0.811159
-0.731344
-0.649958
-0.572102
-0.50304
-0.458985
-0.41207
-0.42528
-0.641546
-0.927855
-1.17815
-1.27974
-1.28462
-1.23384
-1.18476
-1.14652
-1.02239
-1.01219
-0.965638
-0.900479
-0.824868
-0.746087
-0.665802
-0.588454
-0.519087
-0.474914
-0.439297
-0.436747
-0.690479
-1.10154
-1.668
-2.03524
-2.07339
-2.01681
-1.86247
-1.75679
-1.02218
-1.01382
-0.97091
-0.907401
-0.832784
-0.75488
-0.675363
-0.598307
-0.526665
-0.476864
-0.449325
-0.436785
-0.662243
-1.0285
-1.51314
-1.77747
-1.754
-1.65604
-1.54769
-1.49127
-1.01447
-1.00738
-0.968576
-0.90731
-0.834182
-0.757028
-0.677788
-0.599839
-0.524001
-0.463155
-0.429455
-0.384294
-0.472049
-0.478116
-0.492013
-0.475948
-0.385722
-0.293465
-0.209656
-0.129522
-0.997395
-0.99053
-0.957493
-0.899567
-0.828305
-0.75184
-0.67201
-0.591921
-0.510026
-0.433236
-0.376654
-0.263381
-0.152408
0.12837
0.44393
0.696537
0.894715
1.02701
1.09621
1.11945
-0.966248
-0.959626
-0.935408
-0.883302
-0.814708
-0.739138
-0.65861
-0.575871
-0.488347
-0.391343
-0.307239
-0.162948
0.0984616
0.507772
0.949055
1.31079
1.56748
1.71743
1.7819
1.80083
-0.9206
-0.915837
-0.904154
-0.85972
-0.794658
-0.720463
-0.640062
-0.554574
-0.464221
-0.353022
-0.24374
-0.125339
0.175791
0.5675
0.972708
1.3171
1.57745
1.73581
1.80655
1.82597
-0.877319
-0.876243
-0.870936
-0.831546
-0.770081
-0.697774
-0.618865
-0.532689
-0.442588
-0.334495
-0.219322
-0.137571
0.0983908
0.408898
0.726873
1.00178
1.22039
1.36
1.42833
1.45174
-0.841487
-0.843928
-0.836104
-0.801269
-0.742715
-0.673424
-0.597862
-0.515694
-0.431323
-0.341704
-0.235779
-0.169719
-0.018008
0.218222
0.471357
0.674267
0.833257
0.945167
1.00024
1.01859
-0.787934
-0.791343
-0.785847
-0.759708
-0.707598
-0.645004
-0.576755
-0.503521
-0.428221
-0.35267
-0.258987
-0.197907
-0.110574
0.0723437
0.275448
0.425693
0.54153
0.626535
0.664829
0.673281
-0.712668
-0.715294
-0.712793
-0.696208
-0.656888
-0.607883
-0.55219
-0.490842
-0.424641
-0.359667
-0.278873
-0.222601
-0.174871
-0.0401804
0.111487
0.21746
0.298779
0.357504
0.38385
0.391499
-0.626546
-0.628174
-0.627176
-0.617016
-0.592533
-0.559849
-0.519166
-0.472266
-0.415614
-0.361742
-0.294184
-0.24665
-0.220436
-0.126104
-0.0136431
0.0588314
0.114585
0.159568
0.175885
0.180529
-0.544041
-0.545261
-0.544756
-0.539497
-0.526881
-0.507913
-0.480703
-0.448792
-0.403354
-0.359194
-0.305825
-0.264637
-0.250945
-0.184714
-0.102294
-0.0552903
-0.0128184
0.0158829
0.0310427
0.037339
-0.4788
-0.479367
-0.479487
-0.477708
-0.47237
-0.46269
-0.446666
-0.426566
-0.393191
-0.353594
-0.308025
-0.274843
-0.254647
-0.213506
-0.159807
-0.125613
-0.0964426
-0.0775455
-0.0682415
-0.064904
-0.436976
-0.437157
-0.437479
-0.437559
-0.436011
-0.431709
-0.42247
-0.409396
-0.386324
-0.348542
-0.30424
-0.270895
-0.24877
-0.221631
-0.190905
-0.168788
-0.150549
-0.139183
-0.134161
-0.135191
-0.418008
-0.41784
-0.417943
-0.418366
-0.418272
-0.415969
-0.409822
-0.398336
-0.379448
-0.350623
-0.305443
-0.268802
-0.242082
-0.22528
-0.207327
-0.198224
-0.189677
-0.189131
-0.189296
-0.191055
-0.418514
-0.418127
-0.417937
-0.418194
-0.418336
-0.415798
-0.411578
-0.402379
-0.384742
-0.362513
-0.317313
-0.281842
-0.23966
-0.249619
-0.236519
-0.232871
-0.22959
-0.233591
-0.238191
-0.238836
-0.435186
-0.43462
-0.434221
-0.434245
-0.434127
-0.432462
-0.430211
-0.424092
-0.414568
-0.395143
-0.350657
-0.309151
-0.284999
-0.293656
-0.278674
-0.265591
-0.256164
-0.24959
-0.25157
-0.253007
-0.465053
-0.464427
-0.463952
-0.463871
-0.464259
-0.464463
-0.466148
-0.46681
-0.470333
-0.460309
-0.426502
-0.370512
-0.35179
-0.340061
-0.316011
-0.291037
-0.265641
-0.243014
-0.232392
-0.241482
-0.501502
-0.501379
-0.501742
-0.502608
-0.504688
-0.508947
-0.518061
-0.532521
-0.555847
-0.569749
-0.549196
-0.465803
-0.420253
-0.394254
-0.357261
-0.321568
-0.28552
-0.261658
-0.247332
-0.256702
-0.539099
-0.539329
-0.54052
-0.543212
-0.548747
-0.559734
-0.580815
-0.616792
-0.668808
-0.731318
-0.727287
-0.611386
-0.520308
-0.463789
-0.41342
-0.370657
-0.326252
-0.311897
-0.304624
-0.306536
-0.568584
-0.569565
-0.572039
-0.576828
-0.586612
-0.60613
-0.643102
-0.707229
-0.807396
-0.927939
-0.941781
-0.812252
-0.692919
-0.598942
-0.507987
-0.43418
-0.384745
-0.369743
-0.377953
-0.378564
-0.577148
-0.578745
-0.582772
-0.590381
-0.604044
-0.631288
-0.683092
-0.774246
-0.927478
-1.10707
-1.15049
-1.01398
-0.864426
-0.732303
-0.615185
-0.535832
-0.50936
-0.485365
-0.486144
-0.485407
-0.55659
-0.559035
-0.562013
-0.570092
-0.587465
-0.618878
-0.676405
-0.777944
-0.952541
-1.1785
-1.26661
-1.11258
-0.936146
-0.777852
-0.676134
-0.621924
-0.588904
-0.590827
-0.582393
-0.579565
-0.504718
-0.506971
-0.510304
-0.516775
-0.532151
-0.562984
-0.6193
-0.719589
-0.884791
-1.09426
-1.17784
-1.03686
-0.854516
-0.738025
-0.66942
-0.629931
-0.610431
-0.614292
-0.611034
-0.609258
-0.424542
-0.426205
-0.429185
-0.434767
-0.446601
-0.471046
-0.516878
-0.599053
-0.731087
-0.889345
-0.949533
-0.825265
-0.685553
-0.646708
-0.622165
-0.59153
-0.600251
-0.598559
-0.595547
-0.593164
-0.328643
-0.329629
-0.331342
-0.334727
-0.342299
-0.358527
-0.389589
-0.445818
-0.534701
-0.637362
-0.674352
-0.574921
-0.524206
-0.52596
-0.530725
-0.540197
-0.54398
-0.540845
-0.537458
-0.535523
-0.232586
-0.232981
-0.233549
-0.234637
-0.237904
-0.246015
-0.262364
-0.29299
-0.340968
-0.402255
-0.413265
-0.358006
-0.379878
-0.40044
-0.42493
-0.451503
-0.447628
-0.446173
-0.445021
-0.443818
-0.148336
-0.148234
-0.148041
-0.147536
-0.147709
-0.149746
-0.154707
-0.165293
-0.180183
-0.19911
-0.197431
-0.217247
-0.255481
-0.29146
-0.323447
-0.341823
-0.340716
-0.342038
-0.342911
-0.342435
-0.0833531
-0.0829641
-0.082485
-0.0813246
-0.0800123
-0.0787839
-0.077228
-0.0757967
-0.0712884
-0.0540869
-0.069976
-0.123611
-0.160585
-0.200158
-0.228081
-0.238911
-0.24216
-0.245126
-0.245525
-0.245574
-0.0388257
-0.0383328
-0.03784
-0.036743
-0.0352464
-0.0332284
-0.029771
-0.0246025
-0.0159697
0.0018864
-0.00623982
-0.0579451
-0.0955417
-0.126877
-0.147975
-0.154623
-0.15951
-0.161406
-0.162203
-0.162674
-0.0128562
-0.012431
-0.0120903
-0.0114132
-0.0103108
-0.0086913
-0.00562952
-0.000849506
0.00636246
0.0174292
0.0101324
-0.0258114
-0.0538617
-0.0740229
-0.0896243
-0.095437
-0.0968528
-0.098
-0.0986833
-0.0991352
-0.000681254
-0.000357519
-0.000160368
-7.41746e-06
0.000545421
0.001336
0.00307422
0.00586167
0.00999226
0.0155016
0.0115315
-0.00957345
-0.0265882
-0.0387515
-0.0457267
-0.0488513
-0.050031
-0.0504212
-0.0508447
-0.0511657
0.00155658
0.00170971
0.00178955
0.00162006
0.00173581
0.00192339
0.00249852
0.00353551
0.00499779
0.00658314
0.00552967
-0.00232123
-0.00802987
-0.0113985
-0.0138093
-0.0142359
-0.0145961
-0.0145366
-0.0147426
-0.0149178
-1.51499
-0.633172
-0.359835
-0.0714005
0.123335
0.291919
0.433491
0.577253
0.730651
0.807533
-0.498689
-0.0720342
-0.0445833
0.151439
0.287347
0.408749
0.514346
0.607231
0.638362
0.593994
-0.0944546
0.130712
0.174619
0.315383
0.409539
0.495965
0.567304
0.620433
0.624884
0.637053
0.149662
0.302998
0.339645
0.449242
0.508518
0.571108
0.618853
0.652668
0.662782
0.685793
0.340532
0.445675
0.475793
0.550452
0.594974
0.639459
0.673303
0.698367
0.708902
0.739885
0.48743
0.560635
0.591172
0.637775
0.674925
0.706673
0.732095
0.753166
0.767923
0.795791
0.610601
0.663407
0.689734
0.719431
0.74838
0.773036
0.793683
0.813233
0.828466
0.854713
0.716668
0.755314
0.776932
0.798406
0.820143
0.84017
0.857921
0.876295
0.891274
0.914864
0.812528
0.841724
0.859108
0.874939
0.891658
0.908106
0.923861
0.940983
0.954578
0.976882
0.90177
0.922742
0.938001
0.951496
0.965372
0.979373
0.992949
1.0076
1.01913
1.0388
0.98827
1.00419
1.0182
1.03022
1.04231
1.054
1.06515
1.07686
1.08452
1.10134
1.0739
1.08687
1.10069
1.11238
1.12297
1.13273
1.1415
1.14975
1.15332
1.16461
1.16332
1.17431
1.18779
1.19701
1.20444
1.21162
1.21882
1.2254
1.2264
1.23383
1.26178
1.26652
1.27456
1.27904
1.28231
1.28678
1.29278
1.30055
1.30437
1.31426
1.3751
1.36139
1.35394
1.34831
1.34563
1.34703
1.35355
1.36597
1.38071
1.41036
1.49596
1.44027
1.4094
1.39233
1.38419
1.3842
1.39286
1.41234
1.44438
1.51355
)
;

boundaryField
{
    wall-4
    {
        type            zeroGradient;
    }
    pressure-outlet-7
    {
        type            fixedValue;
        value           uniform 0;
    }
    velocity-inlet-6
    {
        type            zeroGradient;
    }
    velocity-inlet-5
    {
        type            zeroGradient;
    }
    frontAndBackPlanes
    {
        type            empty;
    }
}


// ************************************************************************* //
