/*--------------------------------*- C++ -*----------------------------------*\
| =========                 |                                                 |
| \\      /  F ield         | OpenFOAM: The Open Source CFD Toolbox           |
|  \\    /   O peration     | Version:  v2012                                 |
|   \\  /    A nd           | Website:  www.openfoam.com                      |
|    \\/     M anipulation  |                                                 |
\*---------------------------------------------------------------------------*/
FoamFile
{
    version     2.0;
    format      ascii;
    class       surfaceScalarField;
    location    "25";
    object      phi;
}
// * * * * * * * * * * * * * * * * * * * * * * * * * * * * * * * * * * * * * //

dimensions      [0 3 -1 0 0 0 0];
oriented        oriented;


internalField   nonuniform List<scalar> 
4262
(
0.107139
0.470849
0.0955674
0.705157
0.0693514
0.858519
0.047315
1.0208
0.0309103
1.21492
0.0196682
1.44946
0.0122925
1.73324
0.00722145
2.07611
0.00337029
2.48909
-0.000292197
2.98595
-0.00395356
2.98595
-0.00780209
2.48909
-0.0128291
2.07606
-0.0201043
1.73314
-0.0311979
1.44931
-0.0474935
1.21481
-0.0694381
1.02071
-0.0955923
0.858457
-0.107187
0.70518
0.470802
0.112858
0.357992
0.135258
0.682757
0.120367
0.87341
0.097725
1.04344
0.0743082
1.23834
0.052559
1.47121
0.0343105
1.75149
0.0202916
2.09013
0.00919218
2.50019
-0.000795439
2.99594
-0.0107771
2.99594
-0.0216831
2.5
-0.0354803
2.08986
-0.0535529
1.75121
-0.0752778
1.47104
-0.0987308
1.23826
-0.121427
1.0434
-0.135944
0.872974
-0.113175
0.682411
0.357627
0.0920112
0.265981
0.124955
0.649813
0.121215
0.877151
0.10518
1.05948
0.0867984
1.25672
0.0678005
1.49021
0.0488505
1.77044
0.0306396
2.10834
0.0141128
2.51672
-0.00148749
3.01154
-0.0169434
3.01139
-0.0331236
2.51618
-0.0510662
2.1078
-0.0697657
1.76991
-0.0883554
1.48963
-0.106166
1.25608
-0.121498
1.05874
-0.125454
0.876929
-0.0922809
0.649238
0.265346
0.0638561
0.202125
0.104562
0.609107
0.106311
0.875402
0.0950815
1.07071
0.081428
1.27037
0.0669567
1.50468
0.0507393
1.78666
0.0336429
2.12543
0.0161879
2.53418
-0.00220659
3.02994
-0.020421
3.02961
-0.037541
2.5333
-0.0541377
2.1244
-0.0698119
1.78559
-0.0837751
1.50359
-0.0971179
1.26942
-0.108191
1.06981
-0.105766
0.874504
-0.0643553
0.607828
0.20099
0.0372184
0.164906
0.0801749
0.566151
0.0902415
0.865335
0.0828489
1.0781
0.0703246
1.2829
0.0586344
1.51637
0.0460587
1.79923
0.0315462
2.13995
0.0153156
2.55041
-0.00286423
3.04812
-0.0209017
3.04764
-0.0367952
2.54919
-0.0507713
2.13838
-0.0626512
1.79746
-0.0737751
1.51471
-0.085797
1.28144
-0.0925955
1.07661
-0.0817174
0.863626
-0.0377712
0.563882
0.163219
0.0193162
0.14559
0.0568796
0.528587
0.0721824
0.850032
0.0698465
1.08043
0.0607632
1.29198
0.0499715
1.52716
0.0391454
1.81006
0.0273509
2.15174
0.0131332
2.56462
-0.003866
3.06512
-0.0204957
3.06427
-0.0338884
2.56258
-0.0446644
2.14915
-0.0548235
1.80762
-0.0650001
1.52489
-0.0733462
1.28979
-0.074914
1.07818
-0.0585779
0.84729
-0.0198834
0.525187
0.143336
0.0104025
0.135187
0.0413328
0.497657
0.0572927
0.834072
0.0578062
1.07992
0.0517989
1.29799
0.0425052
1.53646
0.0325657
1.82
0.0219953
2.16231
0.00996689
2.57665
-0.0047869
3.07987
-0.0191568
3.07864
-0.0304311
2.57386
-0.0402379
2.15896
-0.0489821
1.81637
-0.0572041
1.53311
-0.0622325
1.29481
-0.0606922
1.07664
-0.043377
0.829975
-0.0110464
0.492857
0.132289
0.00599216
0.129195
0.0309663
0.472683
0.046417
0.818622
0.0482707
1.07807
0.0439823
1.30228
0.0364937
1.54394
0.027699
1.82879
0.0176974
2.17231
0.00643973
2.58791
-0.00636415
3.09267
-0.0186884
3.09097
-0.028906
2.58408
-0.037366
2.16742
-0.0446852
1.82369
-0.0510207
1.53945
-0.0540143
1.29781
-0.0507525
1.07337
-0.0335492
0.812772
-0.00679961
0.466107
0.12549
0.00400279
0.125192
0.0245205
0.452165
0.0394017
0.803741
0.0417277
1.07574
0.0380772
1.30593
0.0316422
1.55038
0.0237401
1.83669
0.0143577
2.18169
0.00385053
2.59842
-0.0075391
3.10406
-0.0183444
3.10177
-0.0275443
2.59328
-0.0353357
2.17521
-0.0419327
1.83028
-0.046839
1.54436
-0.0488866
1.29986
-0.0447397
1.06923
-0.027673
0.795705
-0.00502333
0.443457
0.120466
0.00289446
0.122298
0.0186018
0.436458
0.0322517
0.790091
0.0350634
1.07293
0.031968
1.30902
0.026325
1.55602
0.0193343
1.84368
0.0107353
2.19029
0.000868732
2.60828
-0.0096636
3.1146
-0.0195444
3.11165
-0.0275818
2.60131
-0.0343858
2.18201
-0.0389827
1.83488
-0.042268
1.54764
-0.0434915
1.30108
-0.0386572
1.06439
-0.0222916
0.779339
-0.00406373
0.42523
0.116403
0.00153273
0.120765
0.0116252
0.426365
0.0229011
0.778815
0.0255717
1.07026
0.0229681
1.31163
0.0185198
1.56047
0.0129522
1.84925
0.00608469
2.19716
-0.00217529
2.61654
-0.0119156
3.12434
-0.020727
3.12046
-0.0269342
2.60752
-0.0311291
2.18621
-0.0344198
1.83817
-0.0369386
1.55016
-0.0369941
1.30113
-0.0311734
1.05857
-0.016356
0.764522
-0.00317035
0.412044
0.113232
0.000417559
0.120348
0.00576856
0.421014
0.0141797
0.770404
0.0166491
1.06779
0.0142621
1.31401
0.0100284
1.5647
0.00485527
1.85442
-0.000850358
2.20287
-0.00741479
2.62311
-0.0149423
3.13186
-0.0212705
3.12679
-0.0250531
2.6113
-0.02727
2.18843
-0.0293733
1.84028
-0.0304468
1.55123
-0.0295001
1.30019
-0.0233839
1.05246
-0.0110321
0.75217
-0.00223767
0.403249
0.110995
-0.000337014
0.120685
0.00136845
0.419309
0.00688101
0.764891
0.00882034
1.06585
0.00682456
1.31601
0.00313692
1.56839
-0.00142807
1.85899
-0.00671212
2.20815
-0.0124895
2.62889
-0.0184993
3.13787
-0.0230911
3.13138
-0.0258446
2.61406
-0.0273345
2.18992
-0.0275023
1.84044
-0.0269968
1.55073
-0.0252145
1.29841
-0.018839
1.04608
-0.00832368
0.741655
-0.00187874
0.396805
0.109116
-0.00106259
0.121747
-0.00141523
0.419661
0.00168642
0.761789
0.00293034
1.06461
0.00103683
1.3179
-0.00247014
1.5719
-0.00703383
1.86355
-0.0122525
2.21337
-0.0179531
2.63459
-0.02357
3.14349
-0.0273854
3.1352
-0.0289081
2.61558
-0.0289189
2.18993
-0.027647
1.83917
-0.0258502
1.54893
-0.0226492
1.2952
-0.0160833
1.03951
-0.00712427
0.732696
-0.00184156
0.391522
0.107274
-0.00189696
0.123644
-0.00386193
0.421626
-0.00370932
0.761637
-0.00373251
1.06463
-0.00561932
1.31979
-0.0085574
1.57484
-0.0125123
1.86751
-0.0174584
2.21832
-0.0231271
2.64025
-0.0286461
3.14901
-0.031907
3.13846
-0.0322631
2.61594
-0.0311044
2.18877
-0.0290627
1.83713
-0.0262682
1.54614
-0.0219871
1.29092
-0.0149976
1.03253
-0.00673394
0.724432
-0.00186023
0.386648
0.105414
-0.00248831
0.126133
-0.00643273
0.425571
-0.00812636
0.76333
-0.00884963
1.06535
-0.0109911
1.32193
-0.014474
1.57832
-0.0189969
1.87203
-0.0244701
2.22379
-0.0304926
2.64628
-0.0360456
3.15456
-0.0388612
3.14128
-0.0385491
2.61562
-0.0361366
2.18636
-0.0326845
1.83368
-0.0280175
1.54147
-0.0220448
1.28495
-0.0143558
1.02484
-0.00665916
0.716735
-0.00194702
0.381936
0.103467
-0.00324745
0.12938
-0.00880978
0.431133
-0.0122688
0.766789
-0.0139984
1.06708
-0.0161609
1.32409
-0.0197977
1.58196
-0.0250532
1.87729
-0.0316061
2.23034
-0.0386224
2.65329
-0.0446212
3.16056
-0.0470679
3.14372
-0.0461198
2.61468
-0.042727
2.18296
-0.0381072
1.82906
-0.0322411
1.5356
-0.025225
1.27793
-0.0165534
1.01616
-0.00812459
0.708307
-0.00246505
0.376276
0.101002
-0.00364879
0.133029
-0.0102337
0.437718
-0.0151895
0.771745
-0.0178107
1.0697
-0.0207731
1.32705
-0.0255661
1.58675
-0.0323131
1.88403
-0.0405788
2.23861
-0.0492623
2.66198
-0.0562969
3.1676
-0.0587991
3.14623
-0.0574836
2.61336
-0.0532963
2.17878
-0.0472862
1.82305
-0.0390904
1.52741
-0.0294693
1.26831
-0.019078
1.00577
-0.00985346
0.699082
-0.00313112
0.369554
0.0978709
-0.00490627
0.137935
-0.013887
0.446699
-0.0212994
0.779158
-0.0253675
1.07377
-0.0286723
1.33036
-0.034134
1.59221
-0.0422838
1.89218
-0.0521421
2.24847
-0.0621859
2.67202
-0.0698992
3.17531
-0.0721214
3.14845
-0.0695482
2.61079
-0.0636307
2.17286
-0.0556655
1.81508
-0.0460163
1.51776
-0.035041
1.25734
-0.0233167
0.994049
-0.0124088
0.688174
-0.00394916
0.361094
0.0939217
-0.00600628
0.143941
-0.0167687
0.457461
-0.026356
0.788745
-0.0327753
1.08019
-0.0386469
1.33623
-0.0465136
1.60008
-0.056662
1.90233
-0.0682372
2.26004
-0.0794176
2.6832
-0.0871095
3.183
-0.0880575
3.1494
-0.0836002
2.60633
-0.0759913
2.16525
-0.0659233
1.80501
-0.0538173
1.50565
-0.0402632
1.24378
-0.0266127
0.980399
-0.0144362
0.675998
-0.00465939
0.351318
0.0892623
-0.00818444
0.152126
-0.0229827
0.472259
-0.0362153
0.801978
-0.0453462
1.08932
-0.0531387
1.34402
-0.0629848
1.60992
-0.0752759
1.91462
-0.0886346
2.2734
-0.100533
2.6951
-0.107571
3.19004
-0.106677
3.1485
-0.0996317
2.59928
-0.0888756
2.15449
-0.0758196
1.79196
-0.0616186
1.49145
-0.0468764
1.22904
-0.0320406
0.965563
-0.0176581
0.661615
-0.00559043
0.33925
0.0836719
-0.0102594
0.162385
-0.0287552
0.490755
-0.0462603
0.819483
-0.0596021
1.10266
-0.0716728
1.35609
-0.0854059
1.62366
-0.100749
1.92997
-0.11589
2.28854
-0.128163
2.70737
-0.133679
3.19556
-0.129358
3.14418
-0.118541
2.58847
-0.104791
2.14074
-0.0892766
1.77644
-0.0726877
1.47486
-0.0554426
1.2118
-0.0378654
0.947986
-0.0209001
0.64465
-0.00663328
0.324983
0.0770386
-0.0149965
0.177382
-0.0400737
0.515832
-0.0624409
0.84185
-0.0801283
1.12035
-0.0965783
1.37254
-0.114319
1.6414
-0.132495
1.94814
-0.149153
2.3052
-0.16091
2.71913
-0.163721
3.19837
-0.15562
3.13608
-0.141058
2.57391
-0.123234
2.12292
-0.103968
1.75718
-0.0845152
1.45541
-0.0652523
1.19253
-0.0457099
0.928443
-0.0255527
0.624493
-0.0079028
0.307333
0.0691358
-0.0191813
0.196563
-0.0517043
0.548355
-0.0822817
0.872427
-0.10687
1.14494
-0.129744
1.39542
-0.152477
1.66413
-0.173993
1.96966
-0.191636
2.32284
-0.202072
2.72957
-0.201381
3.19768
-0.188018
3.12272
-0.167978
2.55387
-0.145852
2.10079
-0.123467
1.73479
-0.101404
1.43335
-0.079084
1.17021
-0.0550424
0.904402
-0.0299936
0.599444
-0.00901843
0.286358
0.0601174
-0.0334689
0.230032
-0.0778619
0.592748
-0.116356
0.910922
-0.147002
1.17559
-0.176156
1.42457
-0.203449
1.69142
-0.226795
1.99301
-0.243745
2.33979
-0.251044
2.73686
-0.244624
3.19126
-0.224722
3.10281
-0.199762
2.52891
-0.173139
2.07417
-0.146449
1.7081
-0.12038
1.40728
-0.0941634
1.144
-0.0662978
0.876536
-0.0366171
0.569763
-0.0106326
0.260374
0.0494848
-0.0470132
0.277045
-0.1142
0.659935
-0.167094
0.963816
-0.206358
1.21485
-0.242205
1.46042
-0.271224
1.72044
-0.293727
2.01551
-0.307261
2.35333
-0.308838
2.73844
-0.294974
3.17739
-0.26826
3.0761
-0.237138
2.49778
-0.205348
2.04238
-0.174991
1.67775
-0.146083
1.37837
-0.116244
1.11416
-0.0817113
0.842004
-0.0420859
0.530138
-0.0107197
0.229007
0.0387651
-0.0317356
0.308781
-0.0880909
0.716291
-0.138069
1.01379
-0.182239
1.25902
-0.223706
1.50188
-0.26146
1.7582
-0.296042
2.05009
-0.324647
2.38193
-0.343382
2.75718
-0.345386
3.1794
-0.325833
3.05655
-0.294185
2.46614
-0.256356
2.00455
-0.215035
1.63642
-0.172108
1.33544
-0.127271
1.06932
-0.0790539
0.793786
-0.0345751
0.485659
-0.0074956
0.201928
0.0312695
-0.0094288
0.318209
-0.0380154
0.744877
-0.0753746
1.05115
-0.112884
1.29653
-0.149483
1.53848
-0.184164
1.79288
-0.215467
2.08139
-0.240462
2.40693
-0.254668
2.77138
-0.251083
3.17581
-0.228735
3.0342
-0.196038
2.43344
-0.157694
1.96621
-0.11811
1.59684
-0.0792416
1.29657
-0.0428148
1.03289
-0.0134968
0.764468
0.00240575
0.469756
0.00353398
0.2008
0.0348035
0.00348733
0.314722
-0.0164507
0.764815
-0.04379
1.07849
-0.0735532
1.32629
-0.103788
1.56872
-0.133551
1.82264
-0.160772
2.10861
-0.182365
2.42852
-0.194068
2.78309
-0.190639
3.17238
-0.169297
3.01286
-0.136805
2.40095
-0.100787
1.93019
-0.0652555
1.56131
-0.0324515
1.26377
-0.00513208
1.00557
0.013372
0.745964
0.016204
0.466924
0.00732736
0.209676
0.0421308
0.00340922
0.311313
-0.0070729
0.775297
-0.0273707
1.09879
-0.0517712
1.35069
-0.0767556
1.5937
-0.101876
1.84776
-0.125284
2.13202
-0.144055
2.44729
-0.153947
2.79298
-0.1492
3.16763
-0.12754
2.9912
-0.0995338
2.37294
-0.0704487
1.9011
-0.0422405
1.5331
-0.016326
1.23786
0.00504179
0.984207
0.0176145
0.733391
0.0172183
0.467321
0.00681075
0.220084
0.0489416
0.0058084
0.305504
-0.0012664
0.782372
-0.0190658
1.11659
-0.0397248
1.37135
-0.0609912
1.61497
-0.0827876
1.86956
-0.103321
2.15256
-0.119955
2.46392
-0.128991
2.80201
-0.125309
3.16395
-0.108606
2.9745
-0.0858208
2.35016
-0.0600583
1.87534
-0.0344608
1.5075
-0.0112158
1.21461
0.00706389
0.965927
0.0159343
0.724521
0.0134796
0.469775
0.00480193
0.228762
0.0537435
0.00609519
0.299409
0.00101815
0.787449
-0.0145565
1.13216
-0.033019
1.38981
-0.052086
1.63404
-0.0715385
1.88901
-0.0899881
2.17101
-0.105106
2.47904
-0.113511
2.81042
-0.110466
3.16091
-0.094669
2.9587
-0.0727141
2.3282
-0.049948
1.85257
-0.0286222
1.48618
-0.0105934
1.19658
0.00312929
0.952205
0.0101618
0.717488
0.00872464
0.471213
0.00295816
0.234528
0.0567017
0.00411309
0.295296
0.000509651
0.791053
-0.0130128
1.14569
-0.0297351
1.40654
-0.0473977
1.6517
-0.0652785
1.90689
-0.0824219
2.18815
-0.096988
2.49361
-0.106014
2.81944
-0.105248
3.16014
-0.0921078
2.94556
-0.0735325
2.30963
-0.0544148
1.83346
-0.0365301
1.46829
-0.0196177
1.17967
-0.00627305
0.93886
0.000240037
0.710975
0.00179073
0.469662
0.000808965
0.23551
0.0575107
0.00267409
0.292622
-0.000343256
0.79407
-0.0125054
1.15785
-0.0282283
1.42226
-0.0450862
1.66856
-0.0620543
1.92386
-0.0785079
2.2046
-0.0929048
2.50801
-0.102182
2.82872
-0.101638
3.1596
-0.08965
2.93357
-0.0730552
2.29303
-0.0547587
1.81516
-0.0359695
1.4495
-0.0219705
1.16567
-0.0120925
0.928982
-0.00604586
0.704929
-0.00430036
0.467916
-0.00138065
0.23259
0.05613
-2.97234e-05
0.292652
-0.00299877
0.797039
-0.0135404
1.16839
-0.028085
1.4368
-0.0440662
1.68454
-0.0605711
1.94036
-0.0768022
2.22083
-0.0913683
2.52257
-0.101576
2.83893
-0.103414
3.16144
-0.0943887
2.92455
-0.0779887
2.27663
-0.0604347
1.79761
-0.0464455
1.43551
-0.0329086
1.15213
-0.0217639
0.917837
-0.0136725
0.696837
-0.00709801
0.461342
-0.00221782
0.22771
0.0539122
-0.000508102
0.29316
-0.00519755
0.801728
-0.0153024
1.1785
-0.0286264
1.45013
-0.043809
1.69972
-0.0599139
1.95647
-0.0761343
2.23705
-0.0910709
2.53751
-0.102307
2.85016
-0.105681
3.16481
-0.0969494
2.91581
-0.0828444
2.26253
-0.0681626
1.78292
-0.0519925
1.41934
-0.0372056
1.13735
-0.0249478
0.90558
-0.0157828
0.687672
-0.00907623
0.454635
-0.00286739
0.221501
0.0510448
-0.00251271
0.295673
-0.00772786
0.806944
-0.0171975
1.18796
-0.0295328
1.46246
-0.0439123
1.7141
-0.0596396
1.9722
-0.0759946
2.25341
-0.0916487
2.55316
-0.104494
2.86301
-0.110462
3.17078
-0.104709
2.91006
-0.0909162
2.24873
-0.0729752
1.76498
-0.0574309
1.4038
-0.0438998
1.12382
-0.0328221
0.894502
-0.0218732
0.676723
-0.0107832
0.443545
-0.0033363
0.214054
0.0477085
-0.00389979
0.299572
-0.00928465
0.812328
-0.0185186
1.1972
-0.0303971
1.47434
-0.0441822
1.72789
-0.0595207
1.98754
-0.0759512
2.26984
-0.0922816
2.56949
-0.106241
2.87697
-0.113711
3.17825
-0.110053
2.9064
-0.0979911
2.23667
-0.0827354
1.74973
-0.0651197
1.38618
-0.0496857
1.10838
-0.0346543
0.87947
-0.0222998
0.664369
-0.0122821
0.433528
-0.00370936
0.205481
0.0439991
-0.00443886
0.304011
-0.010605
0.818495
-0.0196684
1.20626
-0.0311051
1.48578
-0.0443831
1.74116
-0.0594017
2.00255
-0.075916
2.28635
-0.0929897
2.58657
-0.108957
2.89294
-0.121039
3.19033
-0.121279
2.90664
-0.109185
2.22458
-0.0903962
1.73094
-0.072942
1.36873
-0.0562151
1.09166
-0.0428392
0.866094
-0.0291953
0.650725
-0.0141566
0.418489
-0.00411457
0.195439
0.0398846
-0.00444194
0.308453
-0.0110505
0.825103
-0.0201742
1.21539
-0.0314293
1.49703
-0.0444434
1.75418
-0.0591992
2.01731
-0.0757312
2.30289
-0.0933878
2.60422
-0.110464
2.91001
-0.122581
3.20245
-0.123184
2.90725
-0.115471
2.21686
-0.101462
1.71693
-0.0808413
1.34811
-0.0613509
1.07216
-0.0431129
0.847856
-0.0273843
0.634997
-0.0145244
0.405629
-0.00405816
0.184973
0.0358264
-0.00444804
0.312901
-0.0115037
0.832159
-0.0204863
1.22437
-0.031434
1.50798
-0.0441672
1.76691
-0.0587061
2.03185
-0.0752144
2.31939
-0.0932555
2.62226
-0.11162
2.92838
-0.127976
3.2188
-0.135361
2.91463
-0.127157
2.20866
-0.108131
1.6979
-0.0880815
1.32806
-0.0670305
1.05111
-0.0498537
0.83068
-0.0335425
0.618685
-0.0157594
0.387846
-0.00384872
0.173063
0.0319777
-0.00440689
0.317308
-0.0114544
0.839206
-0.0202877
1.2332
-0.0310292
1.51872
-0.0435695
1.77945
-0.0579213
2.0462
-0.0744122
2.33588
-0.0929604
2.64081
-0.112716
2.94813
-0.130819
3.23691
-0.138856
2.92267
-0.134057
2.20386
-0.121054
1.6849
-0.0982525
1.30526
-0.0735675
1.02643
-0.0470229
0.804135
-0.0261285
0.597791
-0.0125724
0.37429
-0.00294172
0.163432
0.029036
-0.00443827
0.321746
-0.0115531
0.846321
-0.0200843
1.24173
-0.0304408
1.52908
-0.0426316
1.79164
-0.0567463
2.06032
-0.0731877
2.35233
-0.0918574
2.65948
-0.112086
2.96836
-0.131795
3.25662
-0.144594
2.93547
-0.143894
2.20316
-0.128822
1.66983
-0.106826
1.28326
-0.0782974
0.9979
-0.0517529
0.77759
-0.0272661
0.573304
-0.00947339
0.356497
-0.00255196
0.156511
0.026484
-0.004342
0.326088
-0.0112179
0.853197
-0.019483
1.25
-0.0295331
1.53913
-0.0414096
1.80352
-0.055251
2.07416
-0.071521
2.3686
-0.0903793
2.67834
-0.111884
2.98986
-0.134696
3.27943
-0.149609
2.95038
-0.151374
2.20493
-0.142501
1.66096
-0.119799
1.26056
-0.0875215
0.965623
-0.0453793
0.735448
-0.00388148
0.531806
0.0188222
0.333793
0.020251
0.155082
0.046735
-0.00422883
0.330317
-0.0110497
0.860018
-0.0189867
1.25794
-0.0285876
1.54873
-0.0399873
1.81492
-0.053459
2.08763
-0.0695494
2.38469
-0.0885337
2.69732
-0.110379
3.01171
-0.133606
3.30265
-0.151437
2.96821
-0.16066
2.21415
-0.152302
1.6526
-0.131228
1.23949
-0.0956912
0.930085
-0.0524781
0.692235
0.00104471
0.478284
0.0312594
0.303579
0.0144818
0.171859
0.0612168
-0.00398774
0.334305
-0.0104881
0.866518
-0.0181281
1.26558
-0.0273659
1.55797
-0.0384172
1.82597
-0.0515272
2.10074
-0.0673308
2.40049
-0.0861939
2.71619
-0.108585
3.0341
-0.134171
3.32824
-0.155812
2.98985
-0.165057
2.22339
-0.165785
1.65333
-0.149327
1.22303
-0.115749
0.896508
-0.0522074
0.628693
0.0475672
0.378509
0.152676
0.19847
0.168477
0.156058
0.229694
-0.00383389
0.338139
-0.0103347
0.873019
-0.0178638
1.2731
-0.0269942
1.5671
-0.0380921
1.83707
-0.0515321
2.11418
-0.0681627
2.41712
-0.0885987
2.73662
-0.113591
3.05909
-0.143261
3.35791
-0.169727
3.01632
-0.189043
2.24271
-0.191575
1.65586
-0.179028
1.21048
-0.147062
0.864542
-0.109108
0.59074
-0.129781
0.399182
-0.366866
0.435554
-0.921161
0.710353
0.891616
-1.58308
-0.00360533
0.341744
-0.00977198
0.879186
-0.0170888
1.28042
-0.0260558
1.57607
-0.0370562
1.84807
-0.0505691
2.12769
-0.0675091
2.43406
-0.0886655
2.75778
-0.115317
3.08575
-0.148316
3.39091
-0.181198
3.0492
-0.203898
2.26541
-0.225602
1.67756
-0.232924
1.21781
-0.232062
0.863679
-0.309579
0.668257
-0.686472
0.776075
-1.39947
1.14855
-2.01511
1.32599
1.22124
-2.34474
-0.00342833
0.345173
-0.00940343
0.885161
-0.0164605
1.28748
-0.025158
1.58476
-0.0359299
1.85884
-0.0493766
2.14114
-0.0665437
2.45123
-0.0885028
2.77974
-0.117047
3.11429
-0.154063
3.42792
-0.192282
3.08742
-0.22728
2.30041
-0.251502
1.70178
-0.263151
1.22945
-0.351325
0.951853
-0.742712
1.05964
-1.49863
1.53199
-2.0849
1.73483
-2.33061
1.5717
1.33844
-2.44781
-0.00315958
0.348332
-0.00870509
0.890706
-0.0154747
1.29425
-0.0239479
1.59324
-0.0345595
1.86945
-0.0480166
2.15459
-0.0653999
2.46861
-0.0879955
2.80233
-0.117782
3.14408
-0.157193
3.46734
-0.201175
3.1314
-0.239801
2.33903
-0.28478
1.74676
-0.379299
1.32397
-0.697496
1.27005
-1.40564
1.76779
-2.00658
2.13293
-2.25186
1.98011
-2.36837
1.6882
1.40553
-2.43546
-0.00292316
0.351255
-0.00817491
0.895958
-0.0146137
1.30069
-0.0227567
1.60138
-0.0331415
1.87984
-0.0464456
2.1679
-0.0638934
2.48606
-0.0870323
2.82547
-0.118612
3.17566
-0.163213
3.51194
-0.215422
3.18361
-0.269164
2.39278
-0.323031
1.80063
-0.494178
1.49512
-1.06402
1.83989
-1.7561
2.45986
-2.09306
2.46989
-2.24759
2.13465
-2.33271
1.77332
1.47223
-2.39941
-0.00277215
0.354027
-0.00778879
0.900975
-0.0141841
1.30708
-0.0223717
1.60957
-0.0329974
1.89046
-0.0465626
2.18146
-0.0644893
2.50399
-0.0884762
2.84946
-0.121292
3.20847
-0.166664
3.55731
-0.22211
3.23906
-0.277412
2.44808
-0.373946
1.89716
-0.743924
1.8651
-1.45939
2.55535
-1.95038
2.95085
-2.15592
2.67543
-2.26514
2.24388
-2.34314
1.85131
1.53768
-2.40859
-0.00279521
0.356823
-0.0081512
0.906331
-0.0148688
1.3138
-0.0234131
1.61811
-0.0344551
1.9015
-0.0485359
2.19555
-0.0671599
2.52261
-0.0921652
2.87447
-0.126984
3.24329
-0.178928
3.60925
-0.243272
3.3034
-0.314553
2.51936
-0.498774
2.08139
-1.01808
2.38441
-1.64838
3.18564
-1.94129
3.24377
-2.09303
2.82718
-2.21059
2.36143
-2.30595
1.94667
1.60195
-2.37022
-0.00274053
0.359563
-0.00814028
0.911731
-0.0152301
1.32089
-0.0242623
1.62714
-0.035826
1.91307
-0.0505748
2.21029
-0.070044
2.54208
-0.0962501
2.90067
-0.132682
3.27972
-0.184168
3.66074
-0.248066
3.3673
-0.337982
2.60927
-0.608774
2.35218
-1.22794
3.00358
-1.73474
3.69244
-1.94775
3.45678
-2.0943
2.97373
-2.22434
2.49147
-2.34116
2.06349
1.6637
-2.40291
-0.00261273
0.362176
-0.00847116
0.917589
-0.0159565
1.32837
-0.0254017
1.63659
-0.0374012
1.92507
-0.052705
2.2256
-0.0728791
2.56225
-0.100091
2.92788
-0.138135
3.31777
-0.195448
3.71805
-0.270515
3.44236
-0.394345
2.73311
-0.754032
2.71186
-1.37379
3.62334
-1.74594
4.06459
-1.92772
3.63856
-2.03834
3.08434
-2.13554
2.58867
-2.20939
2.13734
1.65883
-2.20452
-0.00244339
0.364619
-0.00818906
0.923335
-0.0160838
1.33627
-0.0261041
1.64661
-0.0387139
1.93768
-0.0547035
2.24159
-0.0757199
2.58327
-0.104025
2.95619
-0.143673
3.35741
-0.200008
3.77439
-0.277333
3.51969
-0.439266
2.89504
-0.868407
3.141
-1.42747
4.1824
-1.70506
4.34218
-1.8716
3.8051
-1.97261
3.18536
-1.98158
2.59764
-1.92506
2.08082
1.64277
-1.909
-0.00219129
0.366811
-0.00837222
0.929516
-0.0166013
1.3445
-0.0269416
1.65695
-0.0398503
1.95058
-0.0561214
2.25786
-0.0773323
2.60448
-0.105792
2.98465
-0.145484
3.39711
-0.203728
3.83263
-0.292068
3.60803
-0.486366
3.08934
-0.943408
3.59805
-1.39611
4.63509
-1.57808
4.52416
-1.65485
3.88187
-1.66794
3.19845
-1.52877
2.45847
-1.03642
1.58847
0.606344
-0.00163161
0.368442
-0.00754861
0.935433
-0.0162183
1.35317
-0.027322
1.66805
-0.0412101
1.96447
-0.058648
2.2753
-0.0815433
2.62738
-0.112346
3.01545
-0.1554
3.44016
-0.217334
3.89457
-0.315504
3.7062
-0.552482
3.32631
-1.06509
4.11066
-1.44552
5.01552
-1.55551
4.63415
-1.56528
3.89163
-1.47468
3.10785
-1.2356
2.21938
-0.657542
1.01042
-0.0511979
-0.00123479
0.369677
-0.00721465
0.941412
-0.0161781
1.36213
-0.0277624
1.67964
-0.0423171
1.97903
-0.0608325
2.29381
-0.0851776
2.65172
-0.118118
3.04839
-0.164965
3.48701
-0.234483
3.96408
-0.353751
3.82547
-0.642379
3.61494
-1.17966
4.64794
-1.47009
5.30595
-1.54164
4.7057
-1.52848
3.87847
-1.32507
2.90444
-0.811066
1.70538
-0.124349
0.323699
-0.175547
-0.000391518
0.370068
-0.00543751
0.946458
-0.0147185
1.37141
-0.0270876
1.69201
-0.0425062
1.99445
-0.0620387
2.31334
-0.0879297
2.67761
-0.123284
3.08375
-0.173075
3.5368
-0.247166
4.03817
-0.381511
3.95981
-0.718804
3.95224
-1.24654
5.17568
-1.44467
5.50408
-1.48449
4.74552
-1.40836
3.80234
-1.12194
2.61802
-0.348358
0.931801
0.0368461
-0.0615052
-0.138701
0.000593901
0.369475
-0.00395873
0.951011
-0.0133294
1.38078
-0.0260797
1.70476
-0.0418854
2.01025
-0.0623451
2.3338
-0.0894715
2.70474
-0.126136
3.12041
-0.177984
3.58865
-0.260191
4.12038
-0.420904
4.12053
-0.805947
4.33728
-1.29229
5.66202
-1.42722
5.63901
-1.43308
4.75138
-1.25299
3.62225
-0.744759
2.10979
-0.077018
0.264061
0.0393433
-0.177866
-0.0993579
0.00251482
0.36696
-0.000146159
0.953672
-0.0100469
1.39068
-0.0234511
1.71816
-0.0398235
2.02662
-0.0609838
2.35496
-0.0890545
2.73281
-0.127404
3.15876
-0.181479
3.64272
-0.269972
4.20887
-0.445997
4.29655
-0.875786
4.76707
-1.2777
6.06393
-1.35425
5.71557
-1.33218
4.72931
-1.0661
3.35617
-0.38326
1.42695
-0.0288344
-0.0903655
0.00540237
-0.212103
-0.0939556
0.00394067
0.363019
0.00228154
0.955331
-0.0069387
1.3999
-0.0196898
1.73091
-0.0359763
2.04291
-0.0576384
2.37663
-0.0863816
2.76155
-0.125165
3.19754
-0.179655
3.69721
-0.272559
4.30178
-0.465996
4.48999
-0.921987
5.22306
-1.23249
6.37443
-1.28389
5.76697
-1.19069
4.63611
-0.849798
3.01528
-0.152414
0.729561
0.00594149
-0.248721
0.00247853
-0.20864
-0.091477
0.0063214
0.356698
0.00664874
0.955004
-0.000680618
1.40723
-0.0135102
1.74374
-0.0300954
2.0595
-0.0518895
2.39842
-0.0802481
2.78991
-0.118678
3.23597
-0.17341
3.75194
-0.270832
4.3992
-0.477165
4.69632
-0.9238
5.66969
-1.14274
6.59338
-1.15417
5.77839
-0.992361
4.4743
-0.536939
2.55985
-0.00152519
0.194148
0.0294783
-0.279725
0.019859
-0.199021
-0.0716181
0.00892393
0.347774
0.0119576
0.95197
0.00622091
1.41297
-0.00470661
1.75467
-0.021178
2.07597
-0.0424131
2.41966
-0.0699494
2.81745
-0.107811
3.27383
-0.160839
3.80497
-0.256617
4.49498
-0.466692
4.9064
-0.874797
6.0778
-1.03708
6.75566
-1.06345
5.80477
-0.838089
4.24894
-0.302529
2.02429
-0.0143133
-0.0940678
-0.00431248
-0.289725
0.0111069
-0.21444
-0.0605112
0.0130265
0.334747
0.0202838
0.944713
0.0168582
1.4164
0.00669247
1.76484
-0.00925714
2.09192
-0.028644
2.43904
-0.0542777
2.84308
-0.0886057
3.30816
-0.137809
3.85417
-0.232002
4.58917
-0.44295
5.11734
-0.781061
6.41591
-0.884276
6.85887
-0.875222
5.79572
-0.664337
4.03805
-0.136694
1.49665
-0.0281376
-0.202624
-0.0139161
-0.303947
0.0171683
-0.245525
-0.0433429
0.0175133
0.317234
0.0297253
0.932501
0.0295446
1.41658
0.0213301
1.77305
0.00806243
2.10518
-0.00870642
2.45581
-0.0318052
2.86618
-0.0630362
3.33939
-0.105325
3.89646
-0.186216
4.67006
-0.370773
5.3019
-0.61409
6.65923
-0.704214
6.949
-0.722399
5.8139
-0.537
3.85265
-0.155474
1.11513
-0.177547
-0.180552
-0.108215
-0.373279
-0.026628
-0.327111
-0.0699709
0.0236449
0.293589
0.0429615
0.913184
0.0474623
1.41208
0.0420096
1.7785
0.0316774
2.11552
0.0172669
2.47022
-0.00190548
2.88535
-0.0267046
3.36419
-0.0607256
3.93048
-0.121988
4.73133
-0.25603
5.43594
-0.416308
6.8195
-0.503731
7.03642
-0.595609
5.90578
-0.585936
3.84298
-0.532312
1.0615
-0.586941
-0.125923
-0.416177
-0.544043
-0.211179
-0.532109
-0.28115
0.0300357
0.263553
0.0578327
0.885387
0.0685726
1.40134
0.0677887
1.77929
0.0611532
2.12215
0.0507968
2.48058
0.0375244
2.89862
0.021326
3.38039
-0.00289891
3.95471
-0.0268398
4.75527
-0.0800232
5.48913
-0.133565
6.87305
-0.191627
7.09448
-0.284141
5.99829
-0.438049
3.99689
-0.686087
1.30954
-0.764592
-0.047418
-0.589151
-0.719484
-0.309855
-0.811405
-0.591005
0.0378075
0.225746
0.0771239
0.846071
0.0964547
1.38201
0.101007
1.77473
0.0990155
2.12414
0.0940843
2.48551
0.0891245
2.90358
0.0819127
3.3876
0.0815398
3.95508
0.0883882
4.74842
0.145006
5.43251
0.240933
6.77712
0.291079
7.04434
0.337237
5.95213
0.211673
4.12245
-0.180867
1.70208
-0.480711
0.252426
-0.54021
-0.659985
-0.276653
-1.07496
-0.867658
0.0445775
0.181168
0.0977402
0.792908
0.128054
1.35169
0.139974
1.76281
0.144658
2.11946
0.145158
2.48501
0.148105
2.90064
0.156114
3.37959
0.176454
3.93474
0.224661
4.70021
0.38645
5.27072
0.792178
6.37139
1.13267
6.70385
1.54429
5.54051
1.55666
4.11008
1.01119
2.24755
0.551592
0.712021
0.142208
-0.2506
-0.0142335
-0.918521
-0.881891
0.0494734
0.131695
0.120385
0.721996
0.165509
1.30657
0.18693
1.74139
0.199384
2.10701
0.206896
2.4775
0.220344
2.88719
0.240894
3.35904
0.281749
3.89388
0.390338
4.59162
0.651955
5.0091
1.27813
5.74522
1.69894
6.28304
2.02462
5.21482
2.09862
4.03608
1.7377
2.60847
1.26775
1.18198
0.81868
0.198466
0.313737
-0.413578
-0.568154
0.0469746
0.0847203
0.141073
0.627898
0.207206
1.24043
0.241394
1.7072
0.262398
2.086
0.277315
2.46258
0.299711
2.86479
0.330938
3.32782
0.387557
3.83726
0.527146
4.45203
0.830996
4.70525
1.50878
5.06743
1.91048
5.88134
2.17156
4.95375
2.2677
3.93994
2.00823
2.86794
1.46898
1.72123
0.910703
0.75674
0.392882
0.104243
-0.175272
0.0380017
0.0467186
0.159028
0.506872
0.250342
1.14912
0.301314
1.65623
0.332563
2.05475
0.355072
2.44007
0.381888
2.83798
0.423846
3.28586
0.480107
3.781
0.603321
4.32882
0.863284
4.44529
1.41996
4.51075
1.81617
5.48513
1.97006
4.79986
1.98578
3.92421
1.7989
3.05483
1.37997
2.14016
0.881722
1.25499
0.377806
0.60816
0.202533
0.0309043
0.0158143
0.182355
0.35542
0.300113
1.03136
0.36927
1.58707
0.409801
2.01422
0.442353
2.40752
0.470353
2.80998
0.511679
3.24453
0.549591
3.74309
0.628298
4.25011
0.767853
4.30573
1.12505
4.15356
1.52761
5.08257
1.59566
4.73181
1.55698
3.96289
1.40395
3.20786
1.09769
2.44642
0.692919
1.65976
0.283131
1.01795
0.485665
0.0325065
-0.0166922
0.186196
0.201731
0.348888
0.868671
0.445409
1.49055
0.497542
1.96209
0.537352
2.36771
0.564891
2.78244
0.594416
3.21501
0.615727
3.72178
0.646702
4.21914
0.705167
4.24727
0.920172
3.93855
1.28431
4.71843
1.32614
4.68998
1.23439
4.05464
1.07999
3.36225
0.837746
2.68867
0.514827
1.98268
0.197234
1.33554
0.682898
0.033835
-0.0505272
0.130971
0.104594
0.295088
0.704554
0.408825
1.37682
0.468466
1.90245
0.500799
2.33538
0.510506
2.77273
0.510095
3.21542
0.505477
3.7264
0.475409
4.24921
0.458989
4.26369
0.522341
3.8752
0.692547
4.54823
0.705005
4.67753
0.631146
4.1285
0.528614
3.46478
0.400749
2.81653
0.239143
2.14429
0.0844631
1.49022
0.767361
0.0127043
-0.0632315
0.0258993
0.0913994
0.115674
0.614779
0.210006
1.28249
0.280471
1.83198
0.329751
2.2861
0.361479
2.741
0.380727
3.19617
0.386284
3.72084
0.347408
4.28808
0.318036
4.29306
0.33754
3.8557
0.442269
4.4435
0.446316
4.67348
0.386781
4.18803
0.3039
3.54766
0.210026
2.91041
0.104095
2.25022
0.012798
1.58152
0.78016
-0.0118937
-0.0513379
-0.0351685
0.114674
-0.00693738
0.586548
0.0581507
1.2174
0.12369
1.76645
0.181359
2.22843
0.231221
2.69114
0.260581
3.16681
0.265432
3.71599
0.225986
4.32753
0.18876
4.33029
0.200082
3.84437
0.263944
4.37964
0.255561
4.68186
0.211977
4.23162
0.149528
3.61011
0.0837541
2.97618
0.0217295
2.31224
-0.0204472
1.62369
0.759712
-0.0290949
-0.022243
-0.0770035
0.162583
-0.0877717
0.597317
-0.0438103
1.17344
0.0199051
1.70273
0.0785159
2.16982
0.13139
2.63827
0.156658
3.14154
0.164791
3.70786
0.128332
4.36399
0.0856002
4.37302
0.089717
3.84026
0.145104
4.32425
0.128644
4.69832
0.0860765
4.27418
0.0361747
3.66002
-0.0162964
3.02865
-0.0545376
2.35048
-0.0560674
1.62522
0.703645
-0.0362537
0.0140107
-0.0967729
0.223102
-0.123676
0.62422
-0.0951306
1.14489
-0.0368533
1.64445
0.0206868
2.11228
0.0737193
2.58523
0.0976555
3.1176