/*--------------------------------*- C++ -*----------------------------------*\
| =========                 |                                                 |
| \\      /  F ield         | OpenFOAM: The Open Source CFD Toolbox           |
|  \\    /   O peration     | Version:  v2012                                 |
|   \\  /    A nd           | Website:  www.openfoam.com                      |
|    \\/     M anipulation  |                                                 |
\*---------------------------------------------------------------------------*/
FoamFile
{
    version     2.0;
    format      ascii;
    class       volVectorField;
    location    "25";
    object      U;
}
// * * * * * * * * * * * * * * * * * * * * * * * * * * * * * * * * * * * * * //

dimensions      [0 1 -1 0 0 0 0];


internalField   nonuniform List<vector> 
2200
(
(0.878858 -0.0304117 0)
(1.00579 -0.0512847 0)
(1.00324 -0.0353893 0)
(1.00017 -0.0244141 0)
(0.999771 -0.0166363 0)
(0.999981 -0.0106834 0)
(1.00001 -0.00678354 0)
(0.99999 -0.00418637 0)
(0.999959 -0.00226667 0)
(1.00016 -0.000722024 0)
(1.00004 0.000971266 0)
(0.999961 0.00253252 0)
(1.00001 0.00443172 0)
(1.00002 0.007016 0)
(1 0.0108431 0)
(0.999745 0.0167302 0)
(1.00017 0.0244916 0)
(1.00334 0.0353689 0)
(1.00583 0.0513184 0)
(0.878896 0.0304203 0)
(0.711991 -0.0327599 0)
(0.996647 -0.0630002 0)
(1.03343 -0.0561552 0)
(1.02505 -0.046407 0)
(1.01604 -0.0360239 0)
(1.00976 -0.0262275 0)
(1.00591 -0.0180412 0)
(1.00365 -0.011413 0)
(1.00247 -0.00612874 0)
(1.00199 -0.00175166 0)
(1.002 0.00246149 0)
(1.00245 0.00679367 0)
(1.00355 0.0119811 0)
(1.0058 0.0184797 0)
(1.00957 0.0266395 0)
(1.01593 0.036462 0)
(1.02494 0.0467854 0)
(1.03317 0.0566793 0)
(0.996516 0.0631598 0)
(0.711735 0.0328392 0)
(0.535577 -0.0238821 0)
(0.969926 -0.0569186 0)
(1.05634 -0.0547136 0)
(1.05226 -0.0488696 0)
(1.03637 -0.0406331 0)
(1.02438 -0.0325457 0)
(1.01572 -0.0243431 0)
(1.01034 -0.0163828 0)
(1.00734 -0.00900722 0)
(1.00602 -0.00244679 0)
(1.00596 0.00370816 0)
(1.00718 0.0101685 0)
(1.01017 0.0173666 0)
(1.01543 0.0252524 0)
(1.02421 0.0333185 0)
(1.03619 0.0412214 0)
(1.05201 0.0493903 0)
(1.05617 0.0544441 0)
(0.969341 0.0573116 0)
(0.534761 0.0239113 0)
(0.392464 -0.0136139 0)
(0.911779 -0.046267 0)
(1.05744 -0.0468418 0)
(1.06925 -0.0441032 0)
(1.05468 -0.0381601 0)
(1.03941 -0.0317111 0)
(1.02763 -0.0248123 0)
(1.01899 -0.0176217 0)
(1.01338 -0.0102112 0)
(1.01073 -0.0027265 0)
(1.01059 0.00459158 0)
(1.01308 0.0119778 0)
(1.01858 0.0192051 0)
(1.0273 0.026166 0)
(1.03885 0.0328353 0)
(1.05403 0.0390787 0)
(1.06848 0.0448852 0)
(1.05626 0.0476684 0)
(0.910542 0.0465592 0)
(0.390945 0.0137118 0)
(0.308289 -0.00443167 0)
(0.847256 -0.032222 0)
(1.04944 -0.0396159 0)
(1.0791 -0.0378195 0)
(1.06762 -0.0330564 0)
(1.05138 -0.027494 0)
(1.03838 -0.0223221 0)
(1.0283 -0.0164364 0)
(1.0212 -0.0097533 0)
(1.01734 -0.00247024 0)
(1.01719 0.00490619 0)
(1.02079 0.012099 0)
(1.0277 0.018597 0)
(1.0374 0.0242414 0)
(1.05032 0.0290612 0)
(1.06653 0.034435 0)
(1.07781 0.0389219 0)
(1.04784 0.0406367 0)
(0.844724 0.0326022 0)
(0.305815 0.00455232 0)
(0.26513 0.000107557 0)
(0.789535 -0.0199274 0)
(1.03361 -0.0313437 0)
(1.08365 -0.0319037 0)
(1.07707 -0.0283882 0)
(1.06034 -0.0233593 0)
(1.04696 -0.0190993 0)
(1.03632 -0.0142657 0)
(1.02858 -0.00857554 0)
(1.0242 -0.00191348 0)
(1.024 0.00521403 0)
(1.02799 0.0115942 0)
(1.0353 0.0168816 0)
(1.04574 0.0212668 0)
(1.059 0.0253847 0)
(1.07558 0.0300452 0)
(1.08185 0.0332188 0)
(1.03104 0.032402 0)
(0.785545 0.020368 0)
(0.261759 4.20923e-06 0)
(0.241508 0.00106156 0)
(0.739517 -0.0120201 0)
(1.014 -0.0244615 0)
(1.08426 -0.0263456 0)
(1.08305 -0.0241016 0)
(1.06756 -0.0200085 0)
(1.05376 -0.0159818 0)
(1.04281 -0.0117705 0)
(1.03464 -0.00697032 0)
(1.02982 -0.00120427 0)
(1.0294 0.00530912 0)
(1.03349 0.0107739 0)
(1.04122 0.0151899 0)
(1.05203 0.0191246 0)
(1.06555 0.0225531 0)
(1.08074 0.0262231 0)
(1.08147 0.0280829 0)
(1.00995 0.0256861 0)
(0.733689 0.0125437 0)
(0.237085 -0.000941348 0)
(0.227895 0.00107108 0)
(0.698555 -0.00755615 0)
(0.993927 -0.0195314 0)
(1.082 -0.0218907 0)
(1.08648 -0.0204059 0)
(1.07275 -0.01718 0)
(1.05913 -0.0137186 0)
(1.04835 -0.00972813 0)
(1.04045 -0.00522655 0)
(1.03573 -3.62192e-05 0)
(1.03527 0.00550439 0)
(1.0392 0.0103471 0)
(1.0465 0.0142844 0)
(1.05641 0.0175256 0)
(1.06988 0.0204861 0)
(1.08325 0.0232142 0)
(1.07804 0.0241134 0)
(0.987978 0.0211005 0)
(0.690414 0.00822784 0)
(0.222225 -0.000927351 0)
(0.219251 0.000763055 0)
(0.664807 -0.00511101 0)
(0.974216 -0.0164359 0)
(1.07843 -0.0188689 0)
(1.08851 -0.0176682 0)
(1.07648 -0.0150238 0)
(1.06304 -0.0118867 0)
(1.05272 -0.00810413 0)
(1.04523 -0.00382963 0)
(1.04073 0.000919426 0)
(1.04006 0.00552579 0)
(1.04333 0.00982915 0)
(1.04984 0.0135016 0)
(1.05983 0.0165306 0)
(1.07291 0.0192228 0)
(1.08403 0.0211448 0)
(1.07272 0.0216408 0)
(0.965852 0.018356 0)
(0.653753 0.00593942 0)
(0.211986 -0.000571084 0)
(0.213363 0.000347454 0)
(0.638282 -0.00329644 0)
(0.95659 -0.0132676 0)
(1.07542 -0.0158169 0)
(1.09073 -0.0148455 0)
(1.07977 -0.0127092 0)
(1.06609 -0.00992106 0)
(1.05565 -0.00641091 0)
(1.04809 -0.00237329 0)
(1.04351 0.00206745 0)
(1.04253 0.00617527 0)
(1.04549 0.0101258 0)
(1.05179 0.0132509 0)
(1.06148 0.0160956 0)
(1.07447 0.0175776 0)
(1.08473 0.0188448 0)
(1.06787 0.0191562 0)
(0.945529 0.0155626 0)
(0.624108 0.00426442 0)
(0.204276 -0.000117506 0)
(0.209809 0.000126227 0)
(0.6203 -0.00148593 0)
(0.941971 -0.00921063 0)
(1.07285 -0.0115675 0)
(1.09316 -0.0107715 0)
(1.08312 -0.00905842 0)
(1.06931 -0.00690872 0)
(1.05835 -0.00413461 0)
(1.05023 -0.000831904 0)
(1.04513 0.00313612 0)
(1.04395 0.00705861 0)
(1.04699 0.0103099 0)
(1.05368 0.0127312 0)
(1.06324 0.0141857 0)
(1.07649 0.0154765 0)
(1.08542 0.0163847 0)
(1.06263 0.0160251 0)
(0.926554 0.0120683 0)
(0.601573 0.0027559 0)
(0.198164 0.00015673 0)
(0.208235 -2.81898e-05 0)
(0.609295 -0.000274486 0)
(0.929616 -0.00533721 0)
(1.07034 -0.00757718 0)
(1.09566 -0.00703901 0)
(1.08668 -0.00528298 0)
(1.07313 -0.00316545 0)
(1.06212 -0.000852826 0)
(1.05355 0.00176794 0)
(1.04793 0.00481777 0)
(1.04641 0.00799289 0)
(1.04933 0.0101006 0)
(1.05595 0.0113847 0)
(1.06593 0.0121737 0)
(1.07857 0.0131028 0)
(1.08549 0.0133866 0)
(1.057 0.0124477 0)
(0.910665 0.00857195 0)
(0.586768 0.00170241 0)
(0.193835 0.00026043 0)
(0.208318 -0.000117708 0)
(0.604787 0.000569824 0)
(0.922038 -0.00213778 0)
(1.06848 -0.00412925 0)
(1.09788 -0.00371767 0)
(1.09017 -0.00215695 0)
(1.07702 -0.000330974 0)
(1.06628 0.00174084 0)
(1.05792 0.00419326 0)
(1.05225 0.0066584 0)
(1.05019 0.00919322 0)
(1.05217 0.0105779 0)
(1.0577 0.0114628 0)
(1.06657 0.0121119 0)
(1.07866 0.0117723 0)
(1.08442 0.0116434 0)
(1.0506 0.0104104 0)
(0.896694 0.00645699 0)
(0.575947 0.0013581 0)
(0.190244 0.000295278 0)
(0.209494 7.2696e-05 0)
(0.604572 0.00109556 0)
(0.916583 -9.8866e-05 0)
(1.06676 -0.00154901 0)
(1.09949 -0.00110614 0)
(1.09255 0.000297269 0)
(1.07942 0.00203616 0)
(1.06858 0.00417043 0)
(1.06024 0.00660614 0)
(1.05447 0.00896849 0)
(1.05187 0.0111983 0)
(1.0531 0.0122301 0)
(1.05802 0.0125799 0)
(1.06626 0.012459 0)
(1.07781 0.0115303 0)
(1.08211 0.010813 0)
(1.04392 0.00908767 0)
(0.885232 0.00525617 0)
(0.568073 0.00137014 0)
(0.1872 0.000323593 0)
(0.212252 0.000396255 0)
(0.606017 0.0014887 0)
(0.914694 0.00183527 0)
(1.06602 0.00120414 0)
(1.1006 0.00188779 0)
(1.09411 0.00301785 0)
(1.0809 0.00443697 0)
(1.06976 0.00642842 0)
(1.06104 0.00878475 0)
(1.05483 0.0112348 0)
(1.05169 0.0132512 0)
(1.05246 0.0140579 0)
(1.05722 0.0138423 0)
(1.0652 0.0131267 0)
(1.07617 0.0119421 0)
(1.07907 0.0107868 0)
(1.03745 0.00855955 0)
(0.875206 0.00471212 0)
(0.56077 0.0014402 0)
(0.18397 0.00033321 0)
(0.215657 0.000439159 0)
(0.609752 0.00206629 0)
(0.915617 0.00346839 0)
(1.06627 0.00336997 0)
(1.10232 0.00414294 0)
(1.09631 0.00546762 0)
(1.08328 0.007092 0)
(1.07202 0.00936126 0)
(1.06288 0.0118265 0)
(1.05588 0.0144804 0)
(1.05179 0.0163326 0)
(1.05153 0.0169431 0)
(1.05547 0.0163859 0)
(1.06292 0.0149614 0)
(1.07298 0.0132487 0)
(1.07426 0.0111587 0)
(1.02954 0.0081444 0)
(0.86529 0.00442267 0)
(0.554039 0.00156389 0)
(0.180811 0.00034545 0)
(0.221277 0.000547283 0)
(0.61826 0.00270944 0)
(0.919267 0.00488879 0)
(1.06779 0.00560255 0)
(1.10429 0.00637486 0)
(1.09918 0.00760562 0)
(1.0867 0.00953805 0)
(1.07576 0.0122049 0)
(1.06642 0.0151193 0)
(1.05868 0.0181678 0)
(1.05342 0.0199593 0)
(1.05185 0.0203875 0)
(1.05451 0.0194013 0)
(1.06086 0.0176425 0)
(1.06968 0.0153221 0)
(1.06929 0.0127016 0)
(1.02208 0.00924399 0)
(0.856425 0.00520759 0)
(0.546825 0.00203186 0)
(0.177007 0.000420744 0)
(0.226391 0.00063368 0)
(0.625079 0.00301925 0)
(0.92357 0.00588743 0)
(1.06984 0.00707539 0)
(1.10673 0.00816276 0)
(1.10244 0.00982851 0)
(1.09053 0.0123342 0)
(1.07971 0.0156855 0)
(1.07006 0.0194046 0)
(1.0615 0.0230681 0)
(1.05486 0.0250451 0)
(1.05193 0.0253875 0)
(1.05292 0.0241579 0)
(1.05788 0.0219728 0)
(1.0647 0.0190132 0)
(1.06205 0.0150658 0)
(1.0117 0.0105539 0)
(0.84479 0.00610762 0)
(0.537593 0.0025963 0)
(0.172153 0.000529784 0)
(0.234643 0.000845917 0)
(0.638442 0.00405271 0)
(0.932358 0.00806007 0)
(1.0736 0.0102127 0)
(1.10932 0.0114904 0)
(1.10595 0.0132355 0)
(1.09467 0.0163119 0)
(1.08377 0.0203236 0)
(1.07339 0.0247188 0)
(1.06342 0.0288417 0)
(1.05511 0.0309518 0)
(1.05075 0.0309274 0)
(1.05029 0.0291031 0)
(1.05378 0.0259888 0)
(1.05844 0.022323 0)
(1.05369 0.0177071 0)
(1.00165 0.0127052 0)
(0.834411 0.00766409 0)
(0.527449 0.00329043 0)
(0.166182 0.000650561 0)
(0.243089 0.00112208 0)
(0.650605 0.00484745 0)
(0.941382 0.00976704 0)
(1.0785 0.0128716 0)
(1.11304 0.0152558 0)
(1.11048 0.0181629 0)
(1.09983 0.0221076 0)
(1.08872 0.026888 0)
(1.07733 0.031971 0)
(1.06571 0.0363409 0)
(1.05557 0.0382304 0)
(1.04932 0.0374189 0)
(1.04697 0.0347929 0)
(1.04845 0.030982 0)
(1.05085 0.0262987 0)
(1.04307 0.0205248 0)
(0.987679 0.0144596 0)
(0.818347 0.0087966 0)
(0.513209 0.00389313 0)
(0.158531 0.000762953 0)
(0.256111 0.00144105 0)
(0.670467 0.00671748 0)
(0.955983 0.0133059 0)
(1.08651 0.0178324 0)
(1.11883 0.0211025 0)
(1.11682 0.0248069 0)
(1.10648 0.0296469 0)
(1.09478 0.0353504 0)
(1.08193 0.0410202 0)
(1.06801 0.0453641 0)
(1.05521 0.0467809 0)
(1.04667 0.0450057 0)
(1.04245 0.0411432 0)
(1.04173 0.0359028 0)
(1.04162 0.0299875 0)
(1.0315 0.0235734 0)
(0.974832 0.017063 0)
(0.805505 0.0108351 0)
(0.499379 0.00472831 0)
(0.150147 0.000877812 0)
(0.271362 0.00199803 0)
(0.693685 0.00816496 0)
(0.97428 0.016852 0)
(1.09803 0.0230895 0)
(1.12736 0.0282098 0)
(1.12506 0.0336606 0)
(1.11431 0.0401227 0)
(1.10148 0.0467671 0)
(1.08672 0.0529697 0)
(1.07034 0.057126 0)
(1.05502 0.0575114 0)
(1.04388 0.0540188 0)
(1.03699 0.0485724 0)
(1.03372 0.0422894 0)
(1.03108 0.0352687 0)
(1.01794 0.0278518 0)
(0.957166 0.0202185 0)
(0.783024 0.0127853 0)
(0.477979 0.00560884 0)
(0.138978 0.00104723 0)
(0.292914 0.00285714 0)
(0.725017 0.0120165 0)
(0.998363 0.0226754 0)
(1.1133 0.0311679 0)
(1.13883 0.0377701 0)
(1.13563 0.045512 0)
(1.12372 0.0531589 0)
(1.10885 0.0609126 0)
(1.09131 0.067411 0)
(1.07148 0.070852 0)
(1.05237 0.0697266 0)
(1.03813 0.0646711 0)
(1.02927 0.0575464 0)
(1.02381 0.0494116 0)
(1.0188 0.0409665 0)
(1.0033 0.0324288 0)
(0.940522 0.0240032 0)
(0.765722 0.0157018 0)
(0.458845 0.00682959 0)
(0.127451 0.0011448 0)
(0.323389 0.00395643 0)
(0.767467 0.014875 0)
(1.03011 0.0299454 0)
(1.13443 0.0410906 0)
(1.15511 0.0508614 0)
(1.14914 0.0608311 0)
(1.13442 0.0705334 0)
(1.11639 0.0792885 0)
(1.09533 0.0856631 0)
(1.07185 0.0880966 0)
(1.04956 0.0851429 0)
(1.03239 0.077624 0)
(1.02022 0.0681993 0)
(1.012 0.0585165 0)
(1.00465 0.0487169 0)
(0.986059 0.0391491 0)
(0.917588 0.0291852 0)
(0.733536 0.0187287 0)
(0.426338 0.00780565 0)
(0.111435 0.00130124 0)
(0.360013 0.00784388 0)
(0.819523 0.0246062 0)
(1.07062 0.0423085 0)
(1.16128 0.0575413 0)
(1.17498 0.0688297 0)
(1.16503 0.0823472 0)
(1.14634 0.0932757 0)
(1.12422 0.102185 0)
(1.09871 0.10784 0)
(1.07047 0.108397 0)
(1.04332 0.102626 0)
(1.02234 0.092498 0)
(1.0085 0.0811678 0)
(0.998455 0.0694142 0)
(0.988598 0.0579141 0)
(0.966728 0.0464417 0)
(0.893767 0.0348076 0)
(0.707896 0.0226793 0)
(0.400656 0.00964388 0)
(0.0970672 0.00123414 0)
(0.443391 0.011471 0)
(0.899788 0.0347583 0)
(1.12384 0.0619549 0)
(1.19419 0.080541 0)
(1.20063 0.0962886 8.33787e-35)
(1.18325 0.111865 -5.36942e-35)
(1.15895 0.122743 0)
(1.13138 0.130954 0)
(1.10063 0.134761 0)
(1.06764 0.132484 0)
(1.03697 0.123554 0)
(1.01328 0.110608 0)
(0.995412 0.0963479 0)
(0.982193 0.0826916 0)
(0.969999 0.0696225 0)
(0.944047 0.0569683 0)
(0.862684 0.0432097 0)
(0.661478 0.0277985 0)
(0.350009 0.0100914 0)
(0.0741199 0.000975351 0)
(0.511125 0.0264523 -6.21326e-21)
(0.991568 0.0590515 4.08492e-21)
(1.18157 0.0943978 0)
(1.23014 0.116439 1.40021e-21)
(1.22687 0.135413 -1.13457e-21)
(1.20109 0.15051 5.665e-35)
(1.17049 0.160284 0)
(1.13683 0.166908 5.03341e-21)
(1.10032 0.168265 -1.79587e-20)
(1.06155 0.163015 3.9499e-21)
(1.02494 0.150701 0)
(0.995962 0.133838 -1.28132e-20)
(0.976263 0.117542 -1.60113e-20)
(0.961078 0.101664 2.81513e-20)
(0.944613 0.086621 -2.26257e-20)
(0.911252 0.0710448 0)
(0.81658 0.0537734 -8.66633e-21)
(0.601285 0.0342271 0)
(0.299699 0.0143774 -4.68656e-20)
(0.0562603 0.00168758 5.54372e-20)
(0.541409 0.0549238 -4.71812e-23)
(1.04607 0.102185 -4.14807e-20)
(1.22613 0.145877 1.14439e-20)
(1.26288 0.164905 1.56908e-20)
(1.25061 0.183666 -1.70581e-21)
(1.21686 0.196752 3.53444e-21)
(1.17976 0.204704 0)
(1.13978 0.209332 0)
(1.09716 0.208111 2.81464e-20)
(1.05225 0.199773 0)
(1.0104 0.183741 4.40984e-20)
(0.977797 0.165603 1.37471e-20)
(0.951752 0.147282 3.31134e-22)
(0.930551 0.130094 -3.15682e-20)
(0.910697 0.113961 0)
(0.873794 0.0983659 0)
(0.776542 0.0767324 -1.4597e-19)
(0.568969 0.0531197 3.65944e-19)
(0.286617 0.0235235 -2.17395e-19)
(0.054446 0.0053262 -2.57637e-19)
(0.544926 0.0783246 7.51913e-20)
(1.07589 0.159925 -2.20036e-20)
(1.25915 0.20772 -5.69957e-21)
(1.28913 0.224292 -3.04736e-20)
(1.26921 0.240158 1.37708e-20)
(1.2289 0.24926 -4.24644e-21)
(1.18588 0.253854 5.43017e-21)
(1.13996 0.255359 0)
(1.09138 0.250956 -5.83876e-20)
(1.04037 0.239614 6.44259e-20)
(0.993076 0.221834 -1.20541e-19)
(0.954935 0.200854 5.87437e-20)
(0.926577 0.180859 -4.32093e-20)
(0.90405 0.162775 9.46594e-20)
(0.880272 0.146071 0)
(0.840958 0.129364 -3.71341e-20)
(0.747513 0.107723 0)
(0.55596 0.0747052 2.09863e-19)
(0.29058 0.0394357 -4.98094e-19)
(0.0653872 0.00873491 3.12496e-19)
(0.53408 0.110627 -3.6028e-19)
(1.0908 0.218403 1.43811e-19)
(1.27898 0.274293 2.32499e-20)
(1.30672 0.288914 0)
(1.28162 0.301451 1.60062e-20)
(1.23644 0.305724 -1.70154e-20)
(1.18839 0.30632 -5.72396e-21)
(1.13718 0.304051 0)
(1.08319 0.296035 4.12198e-20)
(1.02696 0.281029 -4.42816e-20)
(0.974133 0.259195 1.06103e-19)
(0.931324 0.235335 0)
(0.898252 0.214934 -9.10933e-20)
(0.871211 0.196971 5.0143e-20)
(0.847512 0.180602 1.36273e-19)
(0.81129 0.164412 -1.19946e-19)
(0.725357 0.140314 1.9778e-19)
(0.550073 0.102389 -4.39012e-19)
(0.303887 0.0571647 2.78433e-19)
(0.0776396 0.0150299 -3.48954e-19)
(0.518422 0.134786 2.23723e-19)
(1.09446 0.273391 -1.64909e-19)
(1.289 0.341415 7.2661e-20)
(1.31583 0.354371 -9.9122e-20)
(1.28714 0.363882 6.61363e-20)
(1.23874 0.363717 -1.05475e-20)
(1.18681 0.360432 3.65534e-21)
(1.13127 0.35419 -2.78433e-20)
(1.07271 0.342224 -4.13067e-20)
(1.01176 0.323606 -9.54016e-20)
(0.955143 0.298825 -2.29096e-19)
(0.910794 0.274852 -7.70483e-20)
(0.877276 0.253277 2.61816e-21)
(0.85101 0.234429 -1.81066e-19)
(0.823867 0.216763 -6.34484e-21)
(0.785773 0.197877 1.7642e-19)
(0.705072 0.171731 -5.48448e-20)
(0.544939 0.129919 -3.19427e-20)
(0.314081 0.0760369 0)
(0.0864877 0.021513 7.49895e-19)
(0.499225 0.155903 0)
(1.08569 0.323463 5.14139e-20)
(1.29077 0.40526 0)
(1.31875 0.41827 -1.22786e-20)
(1.28757 0.42571 -8.09036e-20)
(1.23672 0.421522 1.60354e-20)
(1.18176 0.414591 2.64164e-21)
(1.12297 0.404418 4.98445e-20)
(1.06104 0.38853 -2.48346e-20)
(0.996352 0.365856 4.18082e-20)
(0.935826 0.337545 1.23655e-19)
(0.886297 0.309139 1.70696e-19)
(0.848046 0.284597 -1.06748e-19)
(0.817776 0.264301 1.96773e-19)
(0.795383 0.247235 -1.58075e-19)
(0.764314 0.231027 0)
(0.692864 0.204447 -4.20194e-19)
(0.543918 0.158112 5.64886e-19)
(0.321309 0.0945111 4.26845e-20)
(0.0921517 0.0276404 -7.9642e-19)
(0.484188 0.176709 -5.40418e-21)
(1.07687 0.372716 -1.35796e-19)
(1.28779 0.466743 -4.06712e-19)
(1.31661 0.479893 2.23553e-19)
(1.28332 0.485649 -4.74743e-20)
(1.2308 0.478 2.50063e-20)
(1.17367 0.467755 -7.14551e-21)
(1.1123 0.453936 -4.53563e-21)
(1.04711 0.434455 -8.7537e-20)
(0.978529 0.4082 5.83538e-22)
(0.914836 0.376992 -1.35273e-19)
(0.865985 0.346758 -1.82372e-19)
(0.831335 0.322408 1.2024e-19)
(0.805645 0.30263 -7.08411e-20)
(0.777578 0.284247 1.72332e-19)
(0.74174 0.262514 0)
(0.67205 0.234179 -2.60965e-19)
(0.532747 0.184161 3.85977e-19)
(0.321397 0.11086 7.38189e-19)
(0.0938222 0.0328058 -8.66374e-19)
(0.469066 0.194368 -6.69893e-19)
(1.0625 0.417358 3.38344e-19)
(1.28075 0.524378 2.62712e-19)
(1.31088 0.538475 -2.42752e-19)
(1.27592 0.543206 1.12354e-20)
(1.22215 0.532491 6.83344e-20)
(1.16331 0.519301 -2.79959e-21)
(1.09982 0.502175 -1.86721e-20)
(1.03218 0.479284 -5.43154e-20)
(0.961362 0.449366 9.42864e-20)
(0.895712 0.413632 1.27924e-19)
(0.844071 0.380228 2.86042e-19)
(0.804062 0.352332 0)
(0.771449 0.328067 5.61991e-21)
(0.750028 0.30807 -4.79627e-19)
(0.72254 0.292241 1.10294e-19)
(0.660637 0.262391 5.61642e-19)
(0.525168 0.208056 -1.65063e-19)
(0.314003 0.125555 3.50093e-19)
(0.0919599 0.0356785 -2.92309e-20)
(0.459874 0.213405 6.15501e-21)
(1.0509 0.461354 3.13927e-19)
(1.27157 0.579584 2.00004e-19)
(1.30229 0.59435 -4.34919e-19)
(1.26574 0.597827 2.75161e-19)
(1.21117 0.584444 -8.50981e-20)
(1.15103 0.56876 -4.60345e-22)
(1.08594 0.548752 4.04186e-20)
(1.01625 0.52279 9.57857e-20)
(0.943076 0.489621 -1.21414e-19)
(0.875243 0.45108 0)
(0.82213 0.415168 -1.12935e-19)
(0.784976 0.385009 1.29659e-19)
(0.759983 0.361889 1.74565e-19)
(0.732872 0.34288 -1.00137e-19)
(0.699738 0.318252 -2.53037e-19)
(0.637259 0.287141 -7.68327e-20)
(0.508967 0.226114 -1.21367e-21)
(0.303416 0.135241 0)
(0.0875007 0.0381826 0)
(0.45124 0.228882 -3.32568e-19)
(1.03741 0.501613 0)
(1.26035 0.631153 2.29608e-19)
(1.29175 0.647274 -1.05974e-19)
(1.25396 0.649706 -2.85748e-19)
(1.19882 0.633785 7.89299e-20)
(1.13764 0.615907 -6.44435e-21)
(1.07121 0.593342 -1.89342e-20)
(0.999846 0.564596 6.02965e-20)
(0.92441 0.528145 -4.99868e-20)
(0.85397 0.485658 7.19488e-20)
(0.79937 0.44526 3.52834e-19)
(0.75978 0.41327 1.35009e-20)
(0.725367 0.386142 -1.78213e-19)
(0.70416 0.36267 3.44381e-19)
(0.679938 0.343451 4.50901e-21)
(0.623652 0.307915 8.22021e-20)
(0.495363 0.243749 -3.98519e-19)
(0.291528 0.142577 4.04072e-19)
(0.0818952 0.039812 -4.82618e-19)
(0.444818 0.247927 3.35182e-23)
(1.02567 0.540995 0)
(1.24836 0.680284 0)
(1.27982 0.697528 9.86835e-20)
(1.24099 0.698695 1.12379e-19)
(1.18543 0.680397 -6.48174e-20)
(1.12334 0.660629 3.88696e-20)
(1.0558 0.635862 0)
(0.982872 0.604837 -9.82884e-20)
(0.905236 0.565957 1.77547e-19)
(0.832667 0.520506 2.19572e-19)
(0.776704 0.477458 -1.33031e-19)
(0.736065 0.441591 -1.66919e-19)
(0.712637 0.413635 3.94728e-19)
(0.686401 0.390046 -1.21831e-19)
(0.655521 0.362832 -1.47933e-19)
(0.597576 0.326964 -9.04449e-20)
(0.474789 0.255305 -4.32165e-19)
(0.277727 0.147767 6.10991e-20)
(0.0756307 0.0402666 5.24265e-19)
(0.441063 0.266671 -1.33176e-19)
(1.01396 0.577431 -2.10462e-19)
(1.23544 0.725932 2.36026e-20)
(1.26707 0.744855 3.27976e-23)
(1.22748 0.745037 3.59299e-20)
(1.17159 0.724543 -1.7485e-19)
(1.1087 0.703006 0)
(1.04018 0.676247 1.55414e-20)
(0.965729 0.643119 -1.22547e-20)
(0.886282 0.601301 2.80838e-19)
(0.811369 0.551972 -5.48493e-20)
(0.75275 0.505699 6.10664e-20)
(0.712028 0.467349 0)
(0.677171 0.434127 -2.15492e-19)
(0.65745 0.406595 2.68505e-19)
(0.634984 0.384378 0)
(0.581123 0.340426 -1.97715e-19)
(0.456604 0.266816 5.78502e-19)
(0.262896 0.150995 6.87119e-20)
(0.0689765 0.039781 -6.49244e-19)
(0.439093 0.28366 -2.96042e-19)
(1.00402 0.612754 3.79983e-19)
(1.22265 0.76921 0)
(1.25399 0.789558 2.46104e-19)
(1.2137 0.78872 0)
(1.15751 0.766226 1.62817e-19)
(1.09384 0.743097 0)
(1.02434 0.714571 0)
(0.948345 0.679706 -3.4268e-20)
(0.86614 0.636282 -2.73644e-19)
(0.787267 0.586303 -4.0853e-19)
(0.727158 0.536096 7.71704e-20)
(0.686069 0.492514 2.88589e-19)
(0.6625 0.45941 2.42391e-19)
(0.63774 0.431445 -8.61605e-19)
(0.608171 0.397115 -3.55845e-19)
(0.55241 0.355979 2.06941e-19)
(0.432749 0.272655 0)
(0.24655 0.152187 5.94819e-19)
(0.0618588 0.038329 -7.04109e-19)
(0.437675 0.299419 3.26753e-19)
(0.993836 0.645169 -4.17923e-19)
(1.2096 0.809105 0)
(1.24069 0.831298 -1.03096e-20)
(1.19987 0.829876 -1.01048e-19)
(1.14347 0.805705 0)
(1.07916 0.781094 -1.24946e-20)
(1.0088 0.751003 2.13375e-20)
(0.931562 0.714638 -4.37509e-20)
(0.848262 0.66948 2.71941e-20)
(0.769554 0.61455 0)
(0.707067 0.561043 3.08869e-19)
(0.661579 0.517275 4.1428e-21)
(0.625343 0.476324 1.31657e-19)
(0.606001 0.441262 1.58659e-19)
(0.585967 0.414681 0)
(0.533913 0.362166 -3.4848e-19)
(0.412492 0.278054 6.83213e-19)
(0.229643 0.151242 -7.26529e-19)
(0.0549458 0.0360159 1.52724e-18)
(0.436531 0.314402 0)
(0.984958 0.676863 0)
(1.19711 0.846966 -2.29876e-19)
(1.22751 0.870568 0)
(1.18614 0.868463 0)
(1.1296 0.842846 2.35979e-19)
(1.06479 0.817014 -1.61316e-20)
(0.993736 0.785456 1.7072e-20)
(0.915241 0.747718 -3.36195e-21)
(0.829264 0.700806 0)
(0.744457 0.645621 -6.56779e-20)
(0.67821 0.591466 -2.55879e-19)
(0.633509 0.538925 -3.20986e-19)
(0.60915 0.497955 -1.33263e-19)
(0.585551 0.462748 1.74516e-19)
(0.557246 0.421152 -4.14364e-19)
(0.503404 0.373022 7.53962e-19)
(0.385954 0.278339 6.11351e-21)
(0.212242 0.148174 -7.02426e-19)
(0.0482003 0.0332474 -1.04152e-19)
(0.435287 0.329012 0)
(0.975824 0.706063 -3.26276e-19)
(1.18457 0.88178 2.56543e-19)
(1.21438 0.907018 0)
(1.17261 0.904557 0)
(1.11603 0.877836 -5.22332e-19)
(1.05084 0.850947 0)
(0.979082 0.818174 0)
(0.899249 0.779552 -7.55818e-20)
(0.811501 0.732132 5.23512e-20)
(0.726735 0.675849 -5.25285e-19)
(0.658784 0.61608 0)
(0.609187 0.563995 -3.49299e-19)
(0.56916 0.513932 1.14484e-20)
(0.549816 0.46826 -5.58485e-19)
(0.532115 0.433877 2.24507e-19)
(0.483511 0.369481 3.40668e-21)
(0.367208 0.276499 -8.0348e-19)
(0.196647 0.143846 3.81234e-19)
(0.0430172 0.0305421 1.11429e-19)
(0.434128 0.343167 0)
(0.967939 0.734777 -3.85238e-19)
(1.17275 0.915116 2.73274e-19)
(1.20162 0.941416 5.72524e-19)
(1.1594 0.938308 1.15208e-19)
(1.10282 0.910547 -7.96528e-20)
(1.03738 0.882866 4.89545e-20)
(0.965256 0.849216 -8.25558e-20)
(0.884772 0.809571 8.08509e-20)
(0.796065 0.761202 3.22473e-19)
(0.707538 0.702796 4.3563e-19)
(0.632781 0.643015 8.37133e-20)
(0.577721 0.58497 5.06874e-19)
(0.550097 0.533459 3.28906e-19)
(0.52611 0.4883 4.03221e-19)
(0.500118 0.430332 -2.51296e-19)
(0.450568 0.373195 -2.96616e-19)
(0.340425 0.268526 3.48237e-19)
(0.180091 0.135074 -2.05895e-19)
(0.0397719 0.030455 3.63669e-19)
(0.43288 0.356859 5.06827e-19)
(0.959748 0.760917 6.11853e-19)
(1.16091 0.94562 1.50262e-19)
(1.18909 0.973233 1.61711e-20)
(1.14659 0.969761 -4.01025e-19)
(1.09009 0.941234 1.5138e-19)
(1.02457 0.912893 -5.61528e-20)
(0.952093 0.878372 -2.14925e-20)
(0.870499 0.838176 -7.29571e-20)
(0.778905 0.789491 -3.60019e-19)
(0.68555 0.731675 2.62262e-20)
(0.608757 0.66887 0)
(0.555576 0.609692 0)
(0.506482 0.551356 -1.67385e-19)
(0.483097 0.489088 -6.64505e-19)
(0.467941 0.438174 5.4521e-19)
(0.429673 0.35036 3.3223e-19)
(0.335535 0.247946 0)
(0.185666 0.113894 6.57275e-19)
(0.0342421 0.0101081 -3.92811e-19)
(0.431785 0.369819 -2.70808e-19)
(0.952684 0.786638 2.34445e-19)
(1.14983 0.975042 -3.35123e-19)
(1.17706 1.0034 -3.60455e-19)
(1.13422 0.99921 -1.58658e-19)
(1.07785 0.969813 3.62062e-20)
(1.01219 0.940916 0)
(0.939425 0.905862 1.22523e-19)
(0.8572 0.865402 1.2521e-20)
(0.764685 0.816207 0)
(0.671163 0.757975 0)
(0.590892 0.696982 5.84237e-20)
(0.520678 0.635191 8.91438e-20)
(0.485175 0.571056 -1.80771e-19)
(0.454171 0.511552 4.80318e-19)
(0.425535 0.427226 -6.00427e-19)
(0.385465 0.340234 -7.12917e-19)
(0.31779 0.2234 6.31106e-19)
(0.216665 0.133955 -2.36742e-19)
(0.120608 0.0907159 1.35885e-19)
(0.430425 0.382012 3.12835e-19)
(0.945132 0.809654 0)
(1.13875 1.00168 0)
(1.16537 1.03114 -1.21259e-19)
(1.12239 1.02658 9.81533e-20)
(1.06613 0.996579 -2.07916e-20)
(1.00049 0.967225 -2.12881e-19)
(0.927627 0.931689 -1.99128e-19)
(0.844495 0.890623 8.23899e-20)
(0.750032 0.841781 -2.91238e-20)
(0.651894 0.784153 6.96993e-20)
(0.563396 0.722018 -4.83063e-19)
(0.501358 0.659158 -5.30179e-19)
(0.437743 0.594413 -9.65652e-20)
(0.398613 0.512527 0)
(0.374183 0.438699 -1.23024e-20)
(0.345413 0.287742 3.94093e-19)
(0.301164 0.12536 -6.60929e-19)
(0.261373 -0.0301694 4.91029e-19)
(0.0803934 -0.0890623 3.92681e-19)
(0.429191 0.393586 -6.81942e-19)
(0.938567 0.832494 -2.95003e-19)
(1.12837 1.02767 6.50085e-21)
(1.1541 1.05776 1.54942e-19)
(1.11086 1.05257 0)
(1.05477 1.02186 4.54475e-19)
(0.989077 0.992154 2.64189e-19)
(0.915848 0.956282 -4.42873e-20)
(0.83229 0.915698 -2.92078e-20)
(0.737173 0.867252 -2.74796e-20)
(0.637489 0.81097 2.55234e-20)
(0.549715 0.751559 4.26975e-19)
(0.465669 0.688835 5.1811e-19)
(0.414809 0.616836 9.32089e-20)
(0.366856 0.54845 5.14191e-19)
(0.306924 0.428898 0)
(0.207778 0.283569 0)
(0.0422457 0.274977 4.87154e-19)
(-0.0677659 0.629619 -3.34051e-20)
(0.00101292 1.50509 -6.2539e-19)
(0.427533 0.404566 3.71349e-19)
(0.931479 0.852829 8.84709e-19)
(1.11793 1.05118 -1.33055e-18)
(1.1431 1.08243 8.00883e-19)
(1.09974 1.07714 -9.29208e-20)
(1.0437 1.04617 5.94924e-19)
(0.977919 1.01636 0)
(0.904679 0.980561 2.09895e-19)
(0.820519 0.939908 0)
(0.723334 0.891743 2.66758e-19)
(0.620238 0.835813 -3.97512e-20)
(0.522966 0.777826 4.45711e-20)
(0.449685 0.71884 5.76362e-19)
(0.362777 0.657932 -2.11734e-19)
(0.278351 0.56521 -2.687e-19)
(0.209289 0.492087 0)
(0.107648 0.580029 0)
(0.0375417 1.25564 0)
(0.0783956 2.42969 -2.73925e-19)
(0.108954 2.8944 -1.70095e-19)
(0.42599 0.415085 0)
(0.925386 0.873181 0)
(1.10821 1.07438 4.76286e-19)
(1.13252 1.10629 -6.67443e-19)
(1.0889 1.10065 4.56737e-19)
(1.03304 1.06933 -5.44939e-19)
(0.967316 1.03956 -3.04187e-20)
(0.893863 1.00385 2.36841e-20)
(0.809264 0.964209 7.80696e-21)
(0.711557 0.91827 -3.03489e-19)
(0.6068 0.866438 6.10753e-20)
(0.510466 0.812999 4.03144e-19)
(0.411319 0.75623 -5.6812e-19)
(0.34057 0.684818 -6.65562e-19)
(0.274131 0.630227 2.32169e-19)
(0.207513 0.749219 0)
(0.143717 1.49535 3.34855e-19)
(0.141909 2.6705 3.71936e-19)
(0.147982 3.08017 -4.16238e-19)
(0.138644 3.21874 4.56492e-19)
(0.424036 0.424804 0)
(0.918727 0.89093 7.19963e-19)
(1.09845 1.09505 -1.23419e-19)
(1.12229 1.12818 8.41176e-19)
(1.07859 1.12271 -4.79417e-19)
(1.0228 1.09148 0)
(0.956982 1.06193 0)
(0.883509 1.02671 0)
(0.798561 0.987755 -6.47926e-20)
(0.699548 0.941832 3.75039e-21)
(0.592426 0.889719 0)
(0.488494 0.837901 -3.93694e-19)
(0.40638 0.791221 0)
(0.295807 0.742115 4.73598e-19)
(0.215824 0.819877 -3.09103e-19)
(0.171692 1.44323 -2.59056e-19)
(0.177758 2.66082 -6.35061e-19)
(0.197139 3.12569 -3.18131e-19)
(0.18712 3.27169 -3.69476e-19)
(0.171912 3.31277 3.13983e-19)
(0.422306 0.433944 -2.43272e-19)
(0.913074 0.908911 1.51396e-20)
(1.08945 1.1157 -1.33052e-19)
(1.11249 1.14951 -6.72961e-19)
(1.06855 1.14392 0)
(1.01296 1.11266 0)
(0.947319 1.08346 0)
(0.873881 1.04873 -1.44512e-20)
(0.788726 1.01097 7.24229e-20)
(0.689081 0.968745 0)
(0.579422 0.923693 0)
(0.477367 0.87876 0)
(0.366407 0.833369 0)
(0.307406 0.827836 3.1302e-19)
(0.286515 1.18186 8.16037e-19)
(0.274292 2.33585 2.54173e-19)
(0.285312 3.08059 4.65961e-19)
(0.277588 3.29118 -3.02114e-19)
(0.226763 3.35948 1.11332e-19)
(0.192559 3.37214 0)
(0.420188 0.442514 2.46649e-19)
(0.906577 0.924682 -1.5538e-18)
(1.08012 1.13436 -4.40377e-19)
(1.10284 1.16947 -1.07407e-19)
(1.05885 1.16426 1.22269e-19)
(1.0034 1.13332 -8.60044e-19)
(0.937688 1.10457 5.80274e-20)
(0.864236 1.07055 3.89101e-19)
(0.778862 1.03403 0)
(0.678908 0.992337 -1.73546e-20)
(0.570568 0.944835 1.57873e-20)
(0.463405 0.902126 0)
(0.380911 0.875445 0)
(0.329044 1.00011 -3.88456e-19)
(0.295415 1.83221 3.08025e-21)
(0.291771 2.92805 -1.39746e-19)
(0.310418 3.29556 2.36454e-19)
(0.2833 3.39868 9.6962e-20)
(0.215322 3.4246 4.11253e-20)
(0.189154 3.43318 -2.27331e-20)
(0.41804 0.451142 4.75279e-19)
(0.900572 0.942484 1.48688e-18)
(1.0708 1.15497 5.41287e-19)
(1.0928 1.19069 0)
(1.04865 1.18535 0)
(0.993482 1.15438 6.58939e-19)
(0.928098 1.12605 -4.04198e-19)
(0.854999 1.09265 -3.58061e-19)
(0.769931 1.0574 -1.40034e-20)
(0.669565 1.0192 6.15983e-20)
(0.556762 0.9822 -2.96701e-19)
(0.448345 0.945961 0)
(0.368341 0.950946 0)
(0.347368 1.34363 -2.18489e-19)
(0.358583 2.44022 -2.84849e-19)
(0.400862 3.19907 0)
(0.426752 3.38404 1.54585e-20)
(0.356815 3.44934 2.00567e-19)
(0.281683 3.49383 -4.06358e-19)
(0.256793 3.51996 2.43134e-19)
(0.41494 0.460217 -9.00211e-19)
(0.892744 0.959058 -7.07549e-19)
(1.06009 1.17479 0)
(1.08196 1.21183 0)
(1.03792 1.20684 0)
(0.983063 1.17607 0)
(0.917803 1.14805 4.31489e-19)
(0.844925 1.11523 -4.66551e-19)
(0.759911 1.08111 0)
(0.659945 1.04456 -5.03766e-20)
(0.552772 1.00407 4.91961e-19)
(0.451049 0.974995 2.50922e-20)
(0.402241 1.06713 4.22816e-20)
(0.406949 1.72092 3.24686e-19)
(0.428691 2.87808 -1.05124e-19)
(0.464725 3.32985 0)
(0.446898 3.46101 -5.16488e-20)
(0.356692 3.55018 9.95488e-20)
(0.272248 3.61993 3.33093e-19)
(0.196019 3.60016 -2.85243e-19)
(0.411908 0.469308 4.26693e-19)
(0.885311 0.978913 -6.9616e-19)
(1.04904 1.19769 0)
(1.07026 1.23501 -1.72398e-19)
(1.0262 1.22961 6.53967e-19)
(0.971774 1.19853 0)
(0.907117 1.1707 0)
(0.835005 1.13833 8.73906e-19)
(0.750969 1.10557 1.30353e-20)
(0.652048 1.07157 -5.76876e-20)
(0.537761 1.04152 -2.10397e-19)
(0.448295 1.03284 1.616e-19)
(0.4102 1.23304 0)
(0.444967 2.13659 -1.5395e-19)
(0.495103 3.13586 1.27028e-19)
(0.555999 3.43732 -2.68473e-20)
(0.549717 3.54177 0)
(0.480253 3.6363 -1.84648e-19)
(0.40406 3.68155 -7.36389e-19)