/*--------------------------------*- C++ -*----------------------------------*\
| =========                 |                                                 |
| \\      /  F ield         | OpenFOAM: The Open Source CFD Toolbox           |
|  \\    /   O peration     | Version:  v2012                                 |
|   \\  /    A nd           | Website:  www.openfoam.com                      |
|    \\/     M anipulation  |                                                 |
\*---------------------------------------------------------------------------*/
FoamFile
{
    version     2.0;
    format      ascii;
    class       volScalarField;
    location    "51";
    object      p;
}
// * * * * * * * * * * * * * * * * * * * * * * * * * * * * * * * * * * * * * //

dimensions      [0 2 -2 0 0 0 0];


internalField   nonuniform List<scalar> 
2200
(
0.777681
0.756181
0.740273
0.724607
0.709996
0.697474
0.687117
0.679009
0.673298
0.670344
0.670798
0.674586
0.680928
0.689486
0.700163
0.712925
0.727705
0.743611
0.759644
0.781145
0.710115
0.706856
0.703932
0.699811
0.694342
0.687866
0.681243
0.675284
0.670775
0.668374
0.668857
0.67214
0.677306
0.683751
0.690725
0.69747
0.703134
0.707242
0.710103
0.713456
0.670201
0.670421
0.672474
0.673816
0.674208
0.673351
0.671363
0.66868
0.66613
0.66463
0.665178
0.667619
0.670879
0.674087
0.676421
0.67742
0.677143
0.676134
0.674475
0.674228
0.647704
0.649151
0.651755
0.654219
0.656656
0.65867
0.659824
0.660049
0.659666
0.659358
0.659972
0.661337
0.662525
0.662908
0.662213
0.660539
0.65837
0.656157
0.653541
0.652136
0.633389
0.635364
0.638178
0.641002
0.643849
0.646673
0.649123
0.650976
0.652193
0.652979
0.653692
0.654149
0.653898
0.652773
0.650902
0.648522
0.645973
0.643249
0.640452
0.638527
0.626042
0.62764
0.629837
0.632363
0.635029
0.637694
0.640276
0.64268
0.644681
0.646173
0.647011
0.647006
0.646161
0.644638
0.642732
0.640583
0.638251
0.635908
0.633811
0.632235
0.622649
0.623673
0.624938
0.626796
0.628933
0.631092
0.633276
0.635555
0.637763
0.639587
0.64059
0.640583
0.639777
0.638555
0.637138
0.635562
0.633864
0.632285
0.631163
0.630146
0.620007
0.620677
0.621309
0.622608
0.624218
0.625893
0.627634
0.629544
0.631584
0.633517
0.634732
0.635011
0.634666
0.634026
0.633236
0.632269
0.631193
0.630256
0.629804
0.629128
0.616773
0.617217
0.617611
0.618603
0.619863
0.621243
0.622729
0.624372
0.626191
0.628114
0.629586
0.630332
0.630569
0.630491
0.630188
0.629704
0.629108
0.628559
0.628364
0.627901
0.61278
0.613078
0.613435
0.614301
0.615402
0.616659
0.618077
0.619671
0.621446
0.62342
0.625237
0.626516
0.627243
0.627582
0.627626
0.62745
0.627121
0.626772
0.626636
0.626314
0.60813
0.608334
0.608702
0.609528
0.610616
0.611919
0.613429
0.615142
0.61708
0.619287
0.621491
0.623229
0.624373
0.625016
0.625302
0.625343
0.625191
0.624985
0.624868
0.624633
0.602978
0.603123
0.603495
0.604302
0.605445
0.606875
0.60858
0.610548
0.6128
0.615396
0.618115
0.620342
0.621843
0.622757
0.623243
0.623444
0.623476
0.62341
0.623324
0.623138
0.597437
0.597546
0.597923
0.598737
0.599946
0.601525
0.603467
0.605784
0.608512
0.61169
0.615004
0.617744
0.619635
0.620837
0.621557
0.621966
0.622177
0.622237
0.622191
0.622032
0.591517
0.591585
0.591963
0.592808
0.594145
0.595916
0.59813
0.600843
0.604152
0.608065
0.612134
0.615424
0.617728
0.61931
0.620376
0.621058
0.621483
0.621673
0.621665
0.621516
0.585087
0.585128
0.585546
0.586452
0.587917
0.589893
0.592408
0.595556
0.599466
0.604176
0.609125
0.613209
0.616153
0.618266
0.619757
0.620766
0.621425
0.621752
0.621794
0.621649
0.578063
0.578033
0.578448
0.579433
0.581112
0.583336
0.586176
0.589805
0.594426
0.6001
0.606121
0.611241
0.615005
0.61775
0.619779
0.621193
0.622116
0.622595
0.622688
0.622544
0.570183
0.570154
0.570606
0.571724
0.57362
0.576146
0.579441
0.583707
0.58918
0.596001
0.603347
0.609637
0.614413
0.617939
0.620543
0.622419
0.623658
0.624305
0.624451
0.624299
0.561334
0.561359
0.561781
0.562994
0.565221
0.568201
0.572119
0.577196
0.583733
0.591937
0.600864
0.608598
0.614486
0.618896
0.622186
0.624559
0.626127
0.626945
0.627146
0.626984
0.55103
0.551008
0.551546
0.552978
0.555571
0.55914
0.563887
0.570044
0.577939
0.587851
0.598692
0.608123
0.615351
0.620771
0.624792
0.62773
0.629675
0.630662
0.630914
0.630733
0.53882
0.538752
0.539426
0.541241
0.544352
0.548681
0.554511
0.56211
0.571867
0.584022
0.597154
0.608421
0.617037
0.623577
0.628483
0.632009
0.634365
0.635531
0.635829
0.635627
0.524352
0.524241
0.525009
0.52722
0.531113
0.536546
0.543852
0.553388
0.565572
0.580475
0.596201
0.609508
0.619692
0.627465
0.63327
0.637543
0.640342
0.641676
0.642013
0.641785
0.506703
0.506613
0.507604
0.510363
0.515257
0.522173
0.531477
0.543483
0.558594
0.576741
0.595558
0.611361
0.623339
0.632462
0.639346
0.644396
0.647648
0.649168
0.649537
0.649275
0.484901
0.484742
0.486042
0.489625
0.495979
0.504968
0.516891
0.532054
0.55068
0.572598
0.595012
0.613736
0.627902
0.638613
0.646718
0.652629
0.656374
0.658059
0.658441
0.65814
0.456786
0.456789
0.458837
0.463802
0.472363
0.484385
0.50003
0.51934
0.542324
0.568691
0.595183
0.61703
0.633468
0.645945
0.655398
0.662255
0.666489
0.668319
0.668676
0.668325
0.419431
0.419668
0.423171
0.431002
0.443534
0.460446
0.481351
0.506116
0.534523
0.566062
0.596817
0.621795
0.640514
0.654715
0.665495
0.673285
0.677903
0.679762
0.68005
0.679649
0.369505
0.369878
0.376807
0.389925
0.408914
0.43302
0.460967
0.492411
0.527066
0.564317
0.599723
0.627928
0.648923
0.664862
0.676957
0.685469
0.690191
0.691845
0.691962
0.691603
0.303531
0.306355
0.321379
0.342608
0.37043
0.403398
0.43947
0.478374
0.51998
0.563689
0.604338
0.63639
0.660359
0.678577
0.692278
0.701889
0.706846
0.708262
0.708224
0.708052
0.228407
0.237778
0.262789
0.293857
0.331759
0.373717
0.417902
0.464435
0.513205
0.563624
0.610128
0.647105
0.674754
0.695746
0.711766
0.722627
0.727787
0.728828
0.72874
0.728713
0.161137
0.175833
0.207129
0.246949
0.294328
0.345078
0.397255
0.451434
0.507422
0.564552
0.617213
0.65843
0.689198
0.712742
0.730246
0.742159
0.747602
0.748594
0.748884
0.748859
0.109785
0.122961
0.159631
0.205575
0.260259
0.318494
0.378083
0.439614
0.502746
0.566594
0.624486
0.669576
0.703379
0.728879
0.747998
0.760863
0.766719
0.768267
0.768436
0.76849
0.0674677
0.0798878
0.120213
0.170132
0.230337
0.294589
0.360652
0.428702
0.498048
0.567744
0.630529
0.679819
0.716126
0.743727
0.76442
0.777999
0.784565
0.786498
0.786631
0.786719
0.0311199
0.0438231
0.0868521
0.139646
0.204196
0.273255
0.34472
0.418332
0.493248
0.568711
0.636984
0.68943
0.728025
0.757252
0.779141
0.793506
0.800358
0.802531
0.802734
0.802828
-0.000555799
0.012359
0.057548
0.112907
0.180985
0.253983
0.330032
0.40855
0.488721
0.569458
0.64185
0.697422
0.738471
0.769113
0.791803
0.806731
0.814058
0.816385
0.816689
0.816762
-0.0288653
-0.015879
0.0309661
0.0887806
0.159972
0.236361
0.316391
0.399244
0.48402
0.56924
0.645804
0.704799
0.747418
0.779102
0.802433
0.817939
0.825458
0.828042
0.828416
0.828465
-0.0547295
-0.041687
0.00633945
0.0665182
0.140493
0.219895
0.303423
0.390013
0.478805
0.568512
0.649471
0.710772
0.75508
0.787938
0.811519
0.827358
0.835254
0.837989
0.838427
0.838446
-0.0789667
-0.065599
-0.0166913
0.0456461
0.122047
0.204133
0.290716
0.380612
0.47319
0.567147
0.651647
0.715723
0.761934
0.795465
0.81974
0.835586
0.843638
0.846476
0.846941
0.846898
-0.101743
-0.0882154
-0.0384063
0.0258289
0.104293
0.188736
0.278028
0.370952
0.467014
0.564715
0.653018
0.720418
0.768096
0.802636
0.827169
0.842833
0.850912
0.853705
0.854149
0.853967
-0.123244
-0.109659
-0.0590809
0.00675937
0.086995
0.173547
0.265287
0.360947
0.460092
0.561308
0.653654
0.724155
0.773817
0.809347
0.833999
0.849519
0.857251
0.860024
0.860432
0.860337
-0.143889
-0.130111
-0.0789219
-0.0117382
0.0700373
0.158489
0.252425
0.350499
0.452419
0.557136
0.653576
0.727392
0.779528
0.816093
0.840658
0.855732
0.863279
0.865804
0.866206
0.866106
-0.164071
-0.149762
-0.0981171
-0.0297664
0.0533559
0.143497
0.239381
0.339622
0.444149
0.552192
0.652493
0.730015
0.785017
0.822887
0.84758
0.862108
0.868994
0.871231
0.871529
0.87143
-0.183925
-0.168877
-0.116783
-0.047368
0.0369295
0.128542
0.226136
0.328362
0.435314
0.546399
0.650584
0.732168
0.790214
0.830198
0.855222
0.86884
0.874863
0.8763
0.876461
0.876367
-0.203318
-0.187541
-0.134983
-0.0645715
0.0207477
0.113634
0.212744
0.316793
0.425975
0.539868
0.647678
0.733387
0.795261
0.837953
0.863989
0.876704
0.880937
0.881041
0.880877
0.880765
-0.222168
-0.205792
-0.15271
-0.0813715
0.00484538
0.0988405
0.19928
0.304952
0.416125
0.532494
0.643579
0.733577
0.79972
0.84618
0.874392
0.886275
0.888154
0.885517
0.885073
0.885915
-0.240387
-0.223554
-0.169937
-0.0977369
-0.0107256
0.0842217
0.185798
0.292861
0.405762
0.52431
0.638372
0.73258
0.803604
0.85463
0.886483
0.899083
0.898259
0.891592
0.886521
0.885119
-0.257988
-0.240777
-0.18661
-0.113624
-0.0259079
0.069845
0.172353
0.280573
0.394964
0.515421
0.632039
0.730112
0.806079
0.862911
0.900167
0.916044
0.9161
0.904301
0.903243
0.907458
-0.27494
-0.257377
-0.202683
-0.128985
-0.0406512
0.0557608
0.159011
0.268177
0.38382
0.505873
0.624568
0.725926
0.806897
0.870011
0.91441
0.936879
0.940304
0.911632
0.871355
0.835623
-0.29121
-0.273378
-0.218185
-0.143892
-0.0550599
0.0418522
0.145641
0.255518
0.372138
0.495468
0.615796
0.719687
0.804917
0.874813
0.92823
0.96056
0.979055
0.9607
0.977635
1.03613
-0.306734
-0.288795
-0.233208
-0.158486
-0.0693143
0.027897
0.131986
0.242273
0.359464
0.483613
0.605108
0.710611
0.799063
0.874455
0.933357
0.970086
0.981671
0.960363
0.919284
0.934011
-0.321503
-0.30362
-0.247697
-0.17271
-0.0833364
0.0140038
0.118183
0.22858
0.345929
0.470435
0.592518
0.69851
0.787538
0.864406
0.923927
0.960008
0.948245
0.894716
0.830869
0.818614
-0.335485
-0.317821
-0.261652
-0.186562
-0.0971183
0.000174362
0.104237
0.214462
0.331576
0.455902
0.57783
0.683118
0.770098
0.842359
0.896186
0.905163
0.870463
0.793881
0.7195
0.697442
-0.348732
-0.331409
-0.275076
-0.200053
-0.110682
-0.0136063
0.0901474
0.199942
0.316466
0.440044
0.560954
0.664137
0.745482
0.806111
0.835331
0.822889
0.765486
0.664124
0.576933
0.554948
-0.361695
-0.344771
-0.288372
-0.213556
-0.124381
-0.0276549
0.0756372
0.184802
0.30043
0.422704
0.541651
0.641129
0.714972
0.760033
0.755209
0.720696
0.61036
0.488224
0.381018
0.354055
-0.375277
-0.35874
-0.302238
-0.227692
-0.138793
-0.0424571
0.0603003
0.168706
0.283192
0.403639
0.519677
0.613438
0.680266
0.701467
0.667874
0.580635
0.425077
0.272732
0.14369
0.116254
-0.38999
-0.373677
-0.317007
-0.242713
-0.154096
-0.0581419
0.0440473
0.151598
0.264727
0.382873
0.495068
0.582335
0.639033
0.631992
0.579458
0.430336
0.231
0.0188159
-0.160996
-0.20925
-0.405962
-0.389738
-0.332731
-0.258631
-0.170278
-0.0746816
0.0269098
0.133504
0.245079
0.360462
0.46759
0.549097
0.591031
0.552373
0.46538
0.278039
0.0472808
-0.240963
-0.56191
-0.709576
-0.42325
-0.406943
-0.349542
-0.275553
-0.187387
-0.0921387
0.00881275
0.114353
0.224216
0.336514
0.4378
0.513328
0.537372
0.468266
0.33241
0.127352
-0.106289
-0.449636
-1.03614
-1.60797
-0.441952
-0.425471
-0.36749
-0.293517
-0.205454
-0.110514
-0.0102101
0.0942302
0.202306
0.311422
0.406761
0.474718
0.480142
0.394324
0.203801
-0.0294149
-0.231797
-0.46611
-1.02151
-2.53718
-0.462067
-0.445286
-0.386701
-0.312676
-0.224635
-0.130007
-0.0304042
0.0728526
0.179014
0.284834
0.374214
0.432666
0.418142
0.336559
0.110918
-0.127042
-0.274541
-0.311497
-0.301214
-0.68914
-0.483548
-0.466697
-0.407314
-0.3333
-0.245343
-0.151124
-0.0523863
0.0494679
0.153394
0.255318
0.339167
0.387317
0.357295
0.287812
0.061346
-0.140892
-0.251383
-0.259069
-0.205724
-0.246007
-0.506203
-0.489371
-0.429368
-0.355492
-0.267651
-0.173983
-0.0763118
0.0238977
0.12522
0.22267
0.301832
0.34001
0.303508
0.234967
0.0298275
-0.13096
-0.21301
-0.220686
-0.268535
-0.272781
-0.530137
-0.51332
-0.45272
-0.379199
-0.291556
-0.198615
-0.102223
-0.00390747
0.0944876
0.18733
0.261949
0.290814
0.257052
0.174853
0.00198147
-0.120986
-0.191234
-0.167843
-0.188401
-0.189955
-0.554952
-0.537969
-0.477345
-0.404386
-0.316904
-0.22493
-0.130038
-0.0338354
0.0613627
0.149679
0.219653
0.238029
0.216329
0.107452
-0.0325551
-0.115781
-0.155269
-0.202117
-0.177131
-0.185518
-0.580464
-0.563086
-0.503003
-0.430777
-0.343468
-0.252783
-0.159583
-0.0656808
0.0259596
0.110037
0.176082
0.18431
0.174053
0.0471896
-0.0692845
-0.13367
-0.111874
-0.171619
-0.152122
-0.156933
-0.605704
-0.588134
-0.529602
-0.458083
-0.370923
-0.281917
-0.190554
-0.0990987
-0.0114794
0.0688062
0.132074
0.132879
0.122805
-0.00467474
-0.0960428
-0.147551
-0.135608
-0.151681
-0.157104
-0.155386
-0.630351
-0.612921
-0.55627
-0.485459
-0.398899
-0.311974
-0.222554
-0.133709
-0.0504397
0.0262905
0.0881786
0.085047
0.0663953
-0.0480413
-0.110729
-0.140667
-0.179121
-0.152248
-0.158681
-0.15337
-0.653327
-0.636636
-0.581968
-0.512212
-0.427065
-0.342408
-0.255029
-0.168905
-0.090033
-0.0172152
0.0440391
0.041145
0.0110698
-0.0857616
-0.127152
-0.115476
-0.186562
-0.135217
-0.150039
-0.142901
-0.67401
-0.658441
-0.605672
-0.537206
-0.454913
-0.372392
-0.287283
-0.204103
-0.129311
-0.0612542
-0.000562124
-6.53239e-05
-0.03651
-0.10522
-0.140752
-0.10124
-0.144876
-0.126041
-0.132058
-0.129153
-0.690763
-0.676836
-0.626684
-0.560175
-0.481517
-0.400916
-0.318513
-0.23847
-0.167254
-0.104846
-0.0455922
-0.0400337
-0.0720474
-0.109876
-0.137148
-0.116526
-0.126955
-0.126565
-0.125807
-0.125838
-0.702783
-0.690956
-0.643947
-0.57997
-0.505023
-0.427057
-0.347727
-0.271071
-0.202969
-0.146774
-0.0894971
-0.0783027
-0.102108
-0.105941
-0.123404
-0.138656
-0.12519
-0.133265
-0.128018
-0.12831
-0.708631
-0.699215
-0.656391
-0.595643
-0.524361
-0.449736
-0.373872
-0.300715
-0.235556
-0.18501
-0.129988
-0.115974
-0.139544
-0.109218
-0.084326
-0.123877
-0.104196
-0.136943
-0.137564
-0.139489
-0.708245
-0.700954
-0.662347
-0.605318
-0.538078
-0.46747
-0.395516
-0.326005
-0.26388
-0.217481
-0.164872
-0.152339
-0.181858
-0.147453
-0.0239812
-0.0547239
-0.0707329
-0.0907213
-0.0970338
-0.103912
-0.70065
-0.693374
-0.660001
-0.608166
-0.545649
-0.479335
-0.411431
-0.345307
-0.285975
-0.241843
-0.193291
-0.189575
-0.227855
-0.273789
-0.264336
-0.33832
-0.350742
-0.3334
-0.31765
-0.307389
-0.681034
-0.672869
-0.647044
-0.602246
-0.545488
-0.484102
-0.420451
-0.357221
-0.299266
-0.255413
-0.210016
-0.208138
-0.308315
-0.525403
-0.880945
-1.07038
-1.09881
-1.06135
-0.969747
-0.892401
-0.640785
-0.633128
-0.622134
-0.588495
-0.538627
-0.48199
-0.42234
-0.360469
-0.301026
-0.253924
-0.210917
-0.186491
-0.309147
-0.544392
-0.815663
-0.898461
-0.855775
-0.762101
-0.690048
-0.656124
-0.597583
-0.594331
-0.592929
-0.566801
-0.52512
-0.474052
-0.417191
-0.355273
-0.290684
-0.233357
-0.180995
-0.102071
-0.028025
0.0891266
0.187187
0.330184
0.460464
0.545527
0.609442
0.663253
-0.573441
-0.574445
-0.566261
-0.548045
-0.512586
-0.463883
-0.406576
-0.342912
-0.270164
-0.191558
-0.111577
0.0343347
0.251725
0.602267
0.939781
1.21283
1.40205
1.50923
1.55591
1.5707
-0.542078
-0.542684
-0.537883
-0.530981
-0.500379
-0.453823
-0.395086
-0.32787
-0.247449
-0.150945
-0.0449871
0.103539
0.362549
0.718589
1.06604
1.35223
1.5546
1.67225
1.72524
1.74344
-0.518822
-0.517601
-0.518977
-0.513996
-0.489525
-0.44534
-0.385072
-0.313471
-0.228689
-0.12421
-0.00923334
0.110554
0.352696
0.659864
0.964486
1.22709
1.42885
1.55229
1.60776
1.6238
-0.501197
-0.49923
-0.50203
-0.495237
-0.481219
-0.440925
-0.378954
-0.303507
-0.216772
-0.112731
-0.00285006
0.0829079
0.282711
0.54164
0.793501
1.01202
1.18814
1.29599
1.3432
1.355
-0.48634
-0.484437
-0.482542
-0.478634
-0.475868
-0.437047
-0.37466
-0.298012
-0.212995
-0.116857
-0.0142215
0.0491771
0.202329
0.419138
0.620997
0.78966
0.925121
1.00854
1.04426
1.05321
-0.491237
-0.489527
-0.487169
-0.491345
-0.485446
-0.437919
-0.371829
-0.294312
-0.212313
-0.127903
-0.0313797
0.0210096
0.130729
0.306369
0.464718
0.589495
0.687083
0.749319
0.776254
0.782318
-0.507402
-0.508045
-0.510463
-0.519047
-0.502524
-0.443211
-0.368827
-0.288799
-0.209617
-0.137351
-0.0474627
-0.000382493
0.0721808
0.209537
0.330906
0.422647
0.493363
0.539479
0.557821
0.562915
-0.499136
-0.502034
-0.509301
-0.515283
-0.493643
-0.431161
-0.355034
-0.276776
-0.201346
-0.140329
-0.059527
-0.0155391
0.0294854
0.133965
0.225018
0.291935
0.343667
0.377552
0.390746
0.395393
-0.425109
-0.429128
-0.439084
-0.443208
-0.425441
-0.376123
-0.315625
-0.250894
-0.184222
-0.133807
-0.0658056
-0.0261632
0.00338751
0.0832661
0.14869
0.19557
0.23366
0.258812
0.268891
0.271551
-0.294452
-0.298546
-0.302902
-0.306066
-0.297537
-0.274233
-0.241883
-0.202777
-0.155372
-0.116911
-0.0654875
-0.0323424
-0.0116824
0.0506455
0.0966137
0.128424
0.154808
0.171116
0.178232
0.180145
-0.165443
-0.16731
-0.170126
-0.17406
-0.17257
-0.167792
-0.158836
-0.142827
-0.117458
-0.0925995
-0.0596706
-0.0338338
-0.017702
0.0284683
0.0602094
0.0820022
0.0981166
0.10711
0.11042
0.110755
-0.0641052
-0.0651678
-0.0673201
-0.0724816
-0.0790047
-0.0857437
-0.0896528
-0.0879106
-0.0789944
-0.0675269
-0.0491864
-0.0320894
-0.0183779
0.0134156
0.0341766
0.0475952
0.0559326
0.0594892
0.0596266
0.0587403
0.00122525
0.000431596
-0.00136453
-0.00725675
-0.0184254
-0.0310511
-0.0408303
-0.0466247
-0.0472272
-0.045428
-0.0365349
-0.026527
-0.0167488
0.00223944
0.0141659
0.020869
0.0240744
0.0242303
0.022713
0.0213797
0.03511
0.0345184
0.0328933
0.0271706
0.0160016
0.00230129
-0.00986724
-0.0194141
-0.0246381
-0.0282239
-0.0244001
-0.0196632
-0.0143276
-0.00530913
-0.000415053
0.001777
0.00226192
0.000690677
-0.00151389
-0.00297343
0.0493365
0.0488437
0.047416
0.0423887
0.0326512
0.0200546
0.00783756
-0.00287667
-0.0100179
-0.0159818
-0.0145303
-0.0128652
-0.0122357
-0.00952443
-0.00876843
-0.00912286
-0.0106068
-0.0129256
-0.0150652
-0.0164577
0.0521039
0.0517308
0.0505964
0.0466058
0.0388071
0.0283338
0.0173072
0.00680246
-0.000914332
-0.00769976
-0.00769041
-0.00768439
-0.00950921
-0.0100783
-0.0113265
-0.0129963
-0.0153942
-0.0178564
-0.0197809
-0.0211275
0.049054
0.0487892
0.0479321
0.0449356
0.0390731
0.0310057
0.0218918
0.0125546
0.00525032
-0.00184766
-0.00292877
-0.00456157
-0.00706938
-0.00794619
-0.0101928
-0.0128786
-0.0154101
-0.0176751
-0.0192614
-0.02045
0.0434975
0.0433287
0.0427207
0.0405766
0.0363445
0.0304025
0.0233457
0.0156008
0.00941846
0.00225774
0.000310252
-0.00169075
-0.00458398
-0.00594549
-0.00829769
-0.0108571
-0.013166
-0.0150939
-0.0161963
-0.0172373
0.0369968
0.0368947
0.0364682
0.0349849
0.0320148
0.027717
0.0225006
0.0163586
0.0115691
0.00480955
0.00246981
0.000740571
-0.00199703
-0.00370401
-0.00625167
-0.00861526
-0.010529
-0.01199
-0.0126562
-0.013525
0.0305382
0.0304681
0.0301662
0.029129
0.027008
0.0238765
0.0199374
0.0150639
0.0116675
0.00597048
0.00370683
0.00194598
-0.000403462
-0.00163352
-0.00400576
-0.00597474
-0.00744014
-0.00846549
-0.00878374
-0.00951644
0.0245439
0.0245018
0.0242982
0.0236127
0.0221644
0.0199008
0.0169321
0.0130706
0.0105279
0.00590709
0.00374048
0.0021462
-7.01279e-05
-0.000967776
-0.00245221
-0.00351964
-0.00442035
-0.00512502
-0.00531858
-0.00594622
0.01907
0.0190109
0.0188364
0.0183608
0.0174308
0.0159568
0.0139094
0.0109808
0.00914747
0.00525637
0.00315171
0.00152573
-0.000833773
-0.00122805
-0.00163241
-0.00206106
-0.00245373
-0.0027444
-0.00275773
-0.00328458
0.0145478
0.0144996
0.0143895
0.0140743
0.0134419
0.0124301
0.0110482
0.00882524
0.00754462
0.00411049
0.00231074
0.000302661
-0.00193639
-0.00148265
-0.0012332
-0.00103521
-0.000955015
-0.00102847
-0.00103568
-0.00152509
0.0107408
0.0107016
0.0106402
0.0104608
0.0100833
0.00935595
0.00841421
0.0067636
0.00582107
0.00288223
0.00135543
-0.000768847
-0.002507
-0.00164617
-0.000987743
-0.000258624
0.000218239
0.00030078
0.000328697
-8.50129e-05
0.00724121
0.00719782
0.00714117
0.00702389
0.00678569
0.00632586
0.00579533
0.00458324
0.0040496
0.00174942
0.000557875
-0.00129491
-0.0024992
-0.00145711
-0.000658303
0.000332042
0.00113823
0.0014742
0.00154019
0.00104732
0.0041402
0.00409763
0.00406447
0.00404321
0.00391549
0.00366255
0.00340487
0.00255413
0.00249284
0.00100098
0.000161538
-0.00145764
-0.00221485
-0.000882469
-0.000355368
0.000324073
0.00105326
0.00150827
0.0017189
0.00132054
0.00153082
0.00151171
0.00150453
0.00150934
0.00149235
0.00142976
0.00134991
0.000884547
0.00116503
0.000441338
0.000287611
-0.000336765
-0.000797965
-5.77092e-05
-0.000564807
-0.00100051
-0.00136437
-0.00155443
-0.00116876
-0.00117458
-1.07329
-0.232844
0.0372343
0.313701
0.495609
0.651945
0.778738
0.90796
1.0498
1.13192
-0.092384
0.314647
0.331387
0.519816
0.644043
0.755517
0.851499
0.936976
0.964457
0.922347
0.285039
0.499053
0.534397
0.670907
0.757017
0.837001
0.902972
0.952476
0.954605
0.968633
0.514815
0.657961
0.693103
0.795094
0.852015
0.909872
0.954743
0.987124
0.996198
1.01986
0.693016
0.794581
0.824343
0.892159
0.9366
0.977737
1.0099
1.03419
1.04397
1.07553
0.83648
0.905394
0.93574
0.978737
1.01486
1.04504
1.06935
1.09008
1.10422
1.13249
0.95577
1.0064
1.03199
1.06001
1.08771
1.11151
1.13148
1.15072
1.16562
1.19211
1.05963
1.09667
1.11777
1.13844
1.15926
1.17866
1.19607
1.21417
1.22905
1.25271
1.15368
1.1828
1.19915
1.21443
1.23055
1.24662
1.26217
1.27908
1.2927
1.31501
1.24198
1.26244
1.2773
1.29047
1.30404
1.31781
1.33131
1.3459
1.35744
1.37708
1.32743
1.34322
1.35704
1.36885
1.38076
1.3924
1.40353
1.41522
1.42289
1.4397
1.41266
1.4252
1.43891
1.45066
1.4613
1.47109
1.47991
1.48818
1.49174
1.50299
1.5014
1.51221
1.52568
1.53522
1.54279
1.55008
1.55727
1.56377
1.56485
1.57223
1.59981
1.6044
1.6126
1.61736
1.62076
1.62524
1.63124
1.63892
1.64281
1.65268
1.71312
1.70002
1.69273
1.687
1.68427
1.68562
1.69198
1.70435
1.71916
1.74882
1.83512
1.77908
1.74806
1.73086
1.72264
1.72258
1.7314
1.751
1.78284
1.85209
)
;

boundaryField
{
    wall-4
    {
        type            zeroGradient;
    }
    pressure-outlet-7
    {
        type            fixedValue;
        value           uniform 0;
    }
    velocity-inlet-6
    {
        type            zeroGradient;
    }
    velocity-inlet-5
    {
        type            zeroGradient;
    }
    frontAndBackPlanes
    {
        type            empty;
    }
}


// ************************************************************************* //
