/*--------------------------------*- C++ -*----------------------------------*\
| =========                 |                                                 |
| \\      /  F ield         | OpenFOAM: The Open Source CFD Toolbox           |
|  \\    /   O peration     | Version:  v2012                                 |
|   \\  /    A nd           | Website:  www.openfoam.com                      |
|    \\/     M anipulation  |                                                 |
\*---------------------------------------------------------------------------*/
FoamFile
{
    version     2.0;
    format      ascii;
    class       surfaceScalarField;
    location    "51";
    object      phi;
}
// * * * * * * * * * * * * * * * * * * * * * * * * * * * * * * * * * * * * * //

dimensions      [0 3 -1 0 0 0 0];
oriented        oriented;


internalField   nonuniform List<scalar> 
4262
(
0.107142
0.470846
0.0955831
0.705145
0.0694105
0.858476
0.0474217
1.02075
0.0310549
1.21488
0.0198535
1.44942
0.0124538
1.73326
0.00725739
2.07623
0.00334222
2.48916
-0.000343258
2.98598
-0.00402819
2.98598
-0.00791407
2.48913
-0.0129804
2.0761
-0.0202014
1.73308
-0.0311995
1.44922
-0.0472667
1.21458
-0.0690051
1.0205
-0.095245
0.858543
-0.107081
0.705422
0.470907
0.112878
0.357968
0.135292
0.682731
0.120388
0.87338
0.0978069
1.04333
0.0745463
1.23814
0.052836
1.47113
0.0344558
1.75164
0.0202388
2.09045
0.00889412
2.5005
-0.00122997
2.9961
-0.0112487
2.996
-0.0223426
2.50022
-0.0363829
2.09014
-0.0546796
1.75138
-0.076408
1.47095
-0.100074
1.23825
-0.123221
1.04365
-0.136879
0.8722
-0.113515
0.682058
0.357392
0.0920669
0.265901
0.125019
0.649779
0.121181
0.877218
0.104981
1.05953
0.0863445
1.25678
0.0671796
1.4903
0.0482206
1.7706
0.0301964
2.10847
0.0137438
2.51696
-0.00206391
3.01191
-0.0177374
3.01167
-0.0338174
2.5163
-0.0513689
2.10769
-0.0698404
1.76985
-0.0883393
1.48945
-0.105734
1.25564
-0.119978
1.05789
-0.125253
0.877475
-0.092341
0.649146
0.265051
0.0640345
0.201867
0.104908
0.608906
0.106656
0.87547
0.0952152
1.07097
0.0813086
1.27069
0.0666153
1.50499
0.0504883
1.78673
0.0333267
2.12564
0.0155908
2.53469
-0.00316371
3.03066
-0.0216574
3.03016
-0.0388989
2.53354
-0.0554152
2.12421
-0.0706787
1.78512
-0.0844847
1.50325
-0.098142
1.2693
-0.109874
1.06963
-0.106946
0.874548
-0.0648737
0.607074
0.200177
0.0374821
0.164385
0.0807504
0.565637
0.0911382
0.865082
0.0839736
1.07814
0.0713822
1.28328
0.0595597
1.51681
0.0465834
1.79971
0.0316522
2.14057
0.0147586
2.55159
-0.00432877
3.04975
-0.0230453
3.04888
-0.0391774
2.54968
-0.0531195
2.13815
-0.0652164
1.79721
-0.0764619
1.5145
-0.0884063
1.28125
-0.0948027
1.07602
-0.0830363
0.862781
-0.0383261
0.562364
0.161851
0.0195026
0.144882
0.0573029
0.527837
0.0727504
0.849635
0.0707191
1.08017
0.0619789
1.29202
0.0511388
1.52765
0.0400013
1.81084
0.0274041
2.15316
0.0123509
2.56664
-0.00535375
3.06746
-0.022842
3.06637
-0.0371479
2.56398
-0.0486915
2.1497
-0.0586472
1.80717
-0.0684829
1.52433
-0.0761525
1.28891
-0.077017
1.07689
-0.0599326
0.845697
-0.0203516
0.522783
0.1415
0.0106465
0.134236
0.0424393
0.496044
0.0585588
0.833515
0.058829
1.0799
0.0526945
1.29815
0.0433719
1.53697
0.0330944
1.82112
0.0218052
2.16445
0.008541
2.5799
-0.00735284
3.08335
-0.0226192
3.08163
-0.0345091
2.57587
-0.0443633
2.15955
-0.0532821
1.81609
-0.061296
1.53235
-0.0659495
1.29357
-0.0640645
1.075
-0.0457643
0.827397
-0.0116648
0.488683
0.129835
0.00662878
0.127607
0.0331477
0.469525
0.0495748
0.817088
0.0511782
1.0783
0.0460796
1.30325
0.0376664
1.54539
0.0280087
1.83078
0.0171927
2.17527
0.0053066
2.59179
-0.00843411
3.09709
-0.02183
3.09503
-0.0326707
2.58671
-0.0418675
2.16875
-0.0497094
1.82393
-0.0563752
1.53901
-0.0596536
1.29685
-0.0561019
1.07145
-0.0370745
0.808369
-0.0078326
0.459441
0.122002
0.00476908
0.122838
0.0266958
0.447599
0.042583
0.801201
0.0448044
1.07607
0.0403209
1.30774
0.0328014
1.55291
0.0237329
1.83985
0.0132376
2.18576
0.00147908
2.60355
-0.0115801
3.11015
-0.0234621
3.10691
-0.0331685
2.59642
-0.0415458
2.17712
-0.0484893
1.83087
-0.0538637
1.54439
-0.0561482
1.29913
-0.051242
1.06654
-0.0317338
0.788861
-0.0062881
0.433995
0.115714
0.00378089
0.119057
0.0218566
0.429523
0.0371569
0.785901
0.0400314
1.0732
0.0357772
1.31199
0.0285555
1.56013
0.0198545
1.84855
0.00981194
2.19581
-0.00132693
2.61469
-0.0133335
3.12216
-0.0248472
3.11843
-0.0342651
2.60584
-0.0417723
2.18463
-0.0479141
1.83701
-0.0526801
1.54915
-0.0539671
1.30042
-0.0476431
1.06022
-0.0279315
0.76915
-0.0056647
0.411729
0.110049
0.00309144
0.115965
0.0176754
0.414939
0.0317396
0.771836
0.0348857
1.07005
0.0309512
1.31592
0.0239853
1.56709
0.015617
1.85692
0.00585608
2.20557
-0.00535022
2.62589
-0.0176714
3.13448
-0.0285492
3.1293
-0.0367598
2.61405
-0.0433136
2.19119
-0.0483849
1.84209
-0.0520587
1.55283
-0.0523329
1.30069
-0.0448207
1.05271
-0.0250997
0.749429
-0.00536653
0.391995
0.104683
0.00245336
0.113512
0.0140863
0.403306
0.0268465
0.759076
0.0300193
1.06688
0.0260655
1.31988
0.0191233
1.57404
0.0108245
1.86521
0.00131621
2.21508
-0.0092162
2.63643
-0.0205939
3.14586
-0.0309708
3.13968
-0.0389199
2.622
-0.0446797
2.19695
-0.0490855
1.84649
-0.0521167
1.55586
-0.0516195
1.3002
-0.0427612
1.04385
-0.0230178
0.729685
-0.00518955
0.374167
0.0994934
0.00172643
0.111786
0.0106477
0.394385
0.0216305
0.748093
0.0244541
1.06406
0.0205193
1.32381
0.0136126
1.58094
0.00534772
1.87348
-0.00393322
2.22436
-0.0145781
2.64707
-0.0264392
3.15772
-0.0361925
3.14943
-0.0425907
2.6284
-0.0472737
2.20163
-0.0509174
1.85014
-0.0528499
1.55779
-0.0515255
1.29887
-0.0415042
1.03383
-0.0216573
0.709838
-0.00510456
0.357614
0.0943888
0.000902203
0.110883
0.00730333
0.387984
0.016707
0.73869
0.0191845
1.06158
0.0149687
1.32803
0.00776552
1.58815
-0.000762547
1.88201
-0.010401
2.234
-0.0207896
2.65746
-0.0314894
3.16842
-0.0405805
3.15852
-0.0467924
2.63461
-0.0506407
2.20548
-0.0534708
1.85297
-0.0543406
1.55866
-0.0520505
1.29658
-0.0406615
1.02244
-0.0206186
0.689795
-0.00498684
0.341983
0.089402
0.000203907
0.110679
0.00436039
0.383827
0.0112605
0.73179
0.0125726
1.06027
0.00812921
1.33247
0.000840762
1.59544
-0.00808854
1.89094
-0.0179925
2.2439
-0.0287371
2.6682
-0.0396255
3.1793
-0.0478919
3.16679
-0.0524933
2.63921
-0.0553882
2.20837
-0.0572694
1.85485
-0.0572126
1.5586
-0.053511
1.29288
-0.040729
1.00966
-0.0202778
0.669344
-0.0050446
0.32675
0.0843574
-0.000742725
0.111422
0.000723811
0.382361
0.00574606
0.726767
0.00638481
1.05963
0.00115546
1.3377
-0.00703142
1.60362
-0.0165175
1.90042
-0.0268641
2.25425
-0.0374688
2.67881
-0.0473261
3.18916
-0.0544087
3.17387
-0.0585691
2.64337
-0.0606952
2.2105
-0.0616705
1.85582
-0.0606794
1.55761
-0.0553472
1.28755
-0.0411282
0.995438
-0.0201811
0.648397
-0.00510877
0.311677
0.0792486
-0.00159322
0.113015
-0.00238519
0.383152
-0.000362907
0.724745
-0.00195556
1.06122
-0.00800774
1.34375
-0.0165854
1.6122
-0.0267429
1.91058
-0.0378376
2.26534
-0.0490711
2.69004
-0.0591462
3.19924
-0.0657206
3.18045
-0.068519
2.64617
-0.0691573
2.21114
-0.0686297
1.85529
-0.0660892
1.55507
-0.0589529
1.28041
-0.0428089
0.979294
-0.0208081
0.626396
-0.005358
0.296227
0.0738906
-0.00297311
0.115988
-0.00614879
0.386328
-0.00755924
0.726156
-0.0102232
1.06389
-0.0174248
1.35096
-0.027522
1.6223
-0.0386762
1.92174
-0.0502255
2.27689
-0.0614599
2.70128
-0.0709294
3.20871
-0.0759024
3.18542
-0.0773489
2.64761
-0.0768983
2.21069
-0.0756237
1.85402
-0.0722917
1.55174
-0.0633862
1.27151
-0.0450887
0.960996
-0.0218227
0.60313
-0.00570172
0.280106
0.0681889
-0.00425965
0.120248
-0.0103671
0.392436
-0.0152793
0.731068
-0.0212402
1.06985
-0.0296596
1.35937
-0.0406089
1.63325
-0.0528842
1.93401
-0.0657968
2.2898
-0.0782259
2.71371
-0.0880252
3.21851
-0.0924219
3.18982
-0.0927976
2.64799
-0.0908305
2.20872
-0.0870671
1.85026
-0.0809037
1.54558
-0.0693981
1.26
-0.0484288
0.940027
-0.0233875
0.578089
-0.00615819
0.262877
0.0620307
-0.00570783
0.125956
-0.0153426
0.40207
-0.0241379
0.739863
-0.0326882
1.0784
-0.0431754
1.36986
-0.0561898
1.64626
-0.0699702
1.94779
-0.0837004
2.30353
-0.0962281
2.72623
-0.105677
3.22795
-0.108789
3.19293
-0.106708
2.64591
-0.101975
2.20399
-0.0973996
1.84568
-0.090564
1.53874
-0.0765361
1.24597
-0.0525796
0.91607
-0.0253496
0.550859
-0.00670236
0.24423
0.0553283
-0.00798113
0.133937
-0.0221553
0.416245
-0.0363853
0.754093
-0.0483627
1.09037
-0.0605019
1.382
-0.0750886
1.66085
-0.090914
1.96362
-0.106976
2.3196
-0.121151
2.74041
-0.130196
3.237
-0.131051
3.19378
-0.127123
2.64198
-0.121755
2.19862
-0.113731
1.83766
-0.102888
1.5279
-0.0852623
1.22835
-0.0576921
0.8885
-0.0276544
0.520821
-0.00728143
0.223857
0.0480469
-0.0104777
0.144415
-0.0295961
0.435363
-0.0499524
0.774449
-0.0667577
1.10718
-0.0822
1.39744
-0.0997697
1.67842
-0.118046
1.98189
-0.135244
2.33679
-0.148607
2.75377
-0.155275
3.24367
-0.154234
3.19274
-0.148051
2.6358
-0.13914
2.18971
-0.129562
1.82808
-0.117004
1.51534
-0.095497
1.20684
-0.0634951
0.856498
-0.0302186
0.487545
-0.00787091
0.201509
0.040176
-0.0151864
0.159601
-0.041903
0.462079
-0.0691453
0.801692
-0.0911292
1.12916
-0.110429
1.41674
-0.131455
1.69944
-0.152055
2.00249
-0.170741
2.35548
-0.184588
2.76762
-0.190262
3.24934
-0.185233
3.18771
-0.175299
2.62586
-0.164083
2.17849
-0.151024
1.81502
-0.133527
1.49784
-0.107229
1.18054
-0.0703111
0.81958
-0.0330966
0.45033
-0.00841073
0.176823
0.0317652
-0.019506
0.179107
-0.0554157
0.497989
-0.0926068
0.838883
-0.121969
1.15853
-0.146566
1.44134
-0.171518
1.7244
-0.194447
2.02542
-0.21327
2.3743
-0.225085
2.77943
-0.226218
3.25048
-0.217661
3.17916
-0.204325
2.61253
-0.188823
2.16299
-0.172942
1.79914
-0.152599
1.4775
-0.120644
1.14859
-0.0775507
0.776486
-0.0358064
0.408586
-0.00869436
0.149711
0.0230709
-0.0325071
0.211614
-0.0815043
0.546986
-0.128555
0.885933
-0.164553
1.19452
-0.195149
1.47194
-0.224574
1.75382
-0.248714
2.04956
-0.266821
2.39241
-0.276085
2.7887
-0.273651
3.24804
-0.259124
3.16463
-0.240757
2.59416
-0.222637
2.14487
-0.202201
1.7787
-0.175222
1.45052
-0.136469
1.10983
-0.0861954
0.726213
-0.0387916
0.361182
-0.0088491
0.119769
0.0142218
-0.0470304
0.258645
-0.120577
0.620533
-0.183474
0.948831
-0.227761
1.23881
-0.263889
1.50806
-0.293706
1.78364
-0.315351
2.07121
-0.32892
2.40598
-0.331929
2.7917
-0.321838
3.23795
-0.301655
3.14445
-0.278867
2.57137
-0.255101
2.1211
-0.230779
1.75438
-0.199487
1.41923
-0.151987
1.06233
-0.092568
0.666794
-0.0397617
0.308376
-0.00875969
0.0887665
0.0054621
-0.0339468
0.292591
-0.0971635
0.683749
-0.155265
1.00693
-0.202272
1.28582
-0.244758
1.55055
-0.282341
1.82122
-0.316976
2.10584
-0.347721
2.43672
-0.37057
2.81455
-0.379258
3.24664
-0.36978
3.13497
-0.350333
2.55193
-0.327455
2.09823
-0.29616
1.72309
-0.247743
1.37081
-0.179957
0.994547
-0.102226
0.589063
-0.0401283
0.246278
-0.00894569
0.0575839
-0.00348359
-0.0128276
0.305419
-0.0478484
0.71877
-0.0891568
1.04824
-0.128147
1.32481
-0.166726
1.58913
-0.200636
1.85513
-0.231717
2.13692
-0.257441
2.46245
-0.273054
2.83017
-0.274643
3.24823
-0.261628
3.12195
-0.239688
2.52999
-0.209204
2.06774
-0.17346
1.68734
-0.133956
1.33131
-0.0863977
0.946989
-0.0400943
0.54276
-0.0133068
0.21949
-0.00309277
0.0473699
-0.00657637
0.000141427
0.305278
-0.0247222
0.743634
-0.0543115
1.07783
-0.0841323
1.35463
-0.114987
1.61998
-0.144952
1.8851
-0.172187
2.16416
-0.194241
2.4845
-0.208123
2.84405
-0.209216
3.24932
-0.191092
3.10383
-0.161194
2.50009
-0.13143
2.03798
-0.0998637
1.65578
-0.0622461
1.29369
-0.0255557
0.910299
-0.00187767
0.519082
0.00309139
0.214521
0.000801549
0.0496597
-0.00577482
0.000762976
0.304515
-0.0124511
0.756848
-0.0338704
1.09925
-0.0584593
1.37922
-0.0840973
1.64562
-0.109219
1.91022
-0.132337
2.18728
-0.150928
2.50309
-0.161128
2.85425
-0.155552
3.24375
-0.135121
3.0834
-0.110599
2.47557
-0.0792192
2.0066
-0.0452799
1.62184
-0.0166599
1.26507
0.00495834
0.88868
0.0144549
0.509585
0.0103566
0.21862
0.00306238
0.0569539
-0.00271244
0.00388192
0.300633
-0.005696
0.766426
-0.0235968
1.11715
-0.0439714
1.39959
-0.0653528
1.667
-0.0867496
1.93161
-0.107008
2.20753
-0.12341
2.51949
-0.132172
2.86301
-0.128013
3.23959
-0.110239
3.06562
-0.0822056
2.44753
-0.0518089
1.9762
-0.0237648
1.59379
0.0040937
1.23721
0.0229815
0.869793
0.024868
0.507699
0.0149167
0.228571
0.00433682
0.0675338
0.00162438
0.00520248
0.29543
-0.000882569
0.772511
-0.0169994
1.13327
-0.0354096
1.418
-0.0545004
1.68609
-0.0733227
1.95044
-0.0909803
2.22519
-0.105062
2.53358
-0.111653
2.8696
-0.105936
3.23387
-0.0863
3.04599
-0.0606208
2.42185
-0.0350404
1.95062
-0.0076452
1.5664
0.0134522
1.21611
0.0257005
0.857544
0.0258295
0.50757
0.0151881
0.239212
0.0045414
0.0781805
0.00616578
0.00378784
0.291642
-0.000773165
0.777072
-0.0142359
1.14673
-0.0309766
1.43474
-0.048104
1.70322
-0.0651634
1.9675
-0.0814645
2.24149
-0.0949769
2.54709
-0.102427
2.87705
-0.0990426
3.23049
-0.0810153
3.02796
-0.0575134
2.39835
-0.0318361
1.92494
-0.00949874
1.54406
0.0113615
1.19525
0.0242276
0.844678
0.0227849
0.509012
0.0135435
0.248454
0.00412698
0.087597
0.0102928
0.00239566
0.289247
-0.00151426
0.780982
-0.0136141
1.15883
-0.0285603
1.44969
-0.0448035
1.71946
-0.0609834
1.98368
-0.0764997
2.25701
-0.0895449
2.56013
-0.096363
2.88387
-0.0920302
3.22615
-0.0764876
3.01242
-0.0564968
2.37836
-0.0358186
1.90426
-0.0116444
1.51989
0.00626969
1.17734
0.0165966
0.834351
0.0175652
0.508044
0.0101397
0.255879
0.00309028
0.0946465
0.013383
0.000116027
0.289131
-0.00390612
0.785004
-0.0147008
1.16962
-0.028226
1.46321
-0.0433394
1.73458
-0.0587861
1.99912
-0.0740083
2.27223
-0.0871343
2.57326
-0.0952766
2.89201
-0.0943236
3.2252
-0.0817831
2.99988
-0.0630973
2.35968
-0.040302
1.88147
-0.021299
1.50088
-0.00219691
1.15824
0.00991795
0.822236
0.0103851
0.507577
0.00645765
0.259807
0.00210354
0.0990006
0.0154866
-0.000672817
0.289804
-0.00573265
0.790064
-0.0157715
1.17966
-0.0284923
1.47594
-0.043105
1.74919
-0.0581636
2.01418
-0.0731801
2.28725
-0.0867097
2.58679
-0.0959907
2.90129
-0.0959791
3.22519
-0.0848874
2.98879
-0.0684597
2.34325
-0.0502448
1.86325
-0.0287356
1.47937
-0.0119517
1.14145
-0.00137692
0.811662
0.00293681
0.503263
0.0019045
0.260839
0.000935384
0.0999697
0.0164219
-0.00220978
0.292013
-0.00772192
0.795576
-0.0174085
1.18935
-0.0295061
1.48803
-0.0433561
1.76304
-0.0579644
2.02879
-0.0730773
2.30236
-0.0872957
2.60101
-0.0978608
2.91186
-0.100838
3.22817
-0.0926605
2.98061
-0.0761936
2.32678
-0.0562337
1.84329
-0.0390921
1.46223
-0.0213655
1.12373
-0.00845077
0.798747
-0.00364407
0.498456
-0.00141745
0.258612
-0.000272222
0.0988244
0.0161497
-0.00356359
0.295577
-0.00930506
0.801317
-0.0186378
1.19868
-0.0302948
1.49969
-0.0438051
1.77655
-0.0582546
2.04324
-0.0735013
2.31761
-0.0883394
2.61585
-0.100322
2.92384
-0.105986
3.23383
-0.0992739
2.9739
-0.0843858
2.31189
-0.0674339
1.82634
-0.0461035
1.4409
-0.0291351
1.10676
-0.0168826
0.786494
-0.00834103
0.489915
-0.00389605
0.254167
-0.000853712
0.0957821
0.015296
-0.00418766
0.299765
-0.0104853
0.807615
-0.0198507
1.20805
-0.0311669
1.51101
-0.0441845
1.78957
-0.0583624
2.05742
-0.0737276
2.33297
-0.0891827
2.6313
-0.102706
2.93736
-0.110894
3.24202
-0.10717
2.97017
-0.0937722
2.29849
-0.0727833
1.80535
-0.0543631
1.42248
-0.0353892
1.08779
-0.0207022
0.771807
-0.0123674
0.48158
-0.00521057
0.24701
-0.00126444
0.091836
0.0140316
-0.00440242
0.304167
-0.0112725
0.814485
-0.0205375
1.21731
-0.0315874
1.52206
-0.0443928
1.80237
-0.0584297
2.07145
-0.0738923
2.34843
-0.0900195
2.64743
-0.105211
2.95255
-0.116064
3.25287
-0.115626
2.96973
-0.10291
2.28578
-0.0843628
1.78681
-0.0599151
1.39803
-0.040549
1.06842
-0.0257511
0.757009
-0.0136178
0.469447
-0.00597072
0.239363
-0.00134164
0.0872069
0.0126899
-0.00444856
0.308616
-0.0116904
0.821727
-0.0210062
1.22663
-0.031841
1.53289
-0.0442918
1.81482
-0.0580893
2.08525
-0.0736215
2.36397
-0.090291
2.6641
-0.106708
2.96897
-0.11967
3.26583
-0.122109
2.97217
-0.111239
2.27491
-0.0890395
1.76461
-0.0664048
1.3754
-0.04323
1.04524
-0.0255553
0.739335
-0.0142504
0.458142
-0.00534267
0.230456
-0.00109872
0.0829629
0.0115912
-0.0045317
0.313147
-0.0119941
0.829189
-0.021087
1.23572
-0.0316734
1.54348
-0.0439137
1.82706
-0.0575407
2.09888
-0.0731115
2.37954
-0.0902854
2.68127
-0.108158
2.98684
-0.12386
3.28154
-0.129179
2.97749
-0.119434
2.26516
-0.100746
1.74592
-0.0716997
1.34635
-0.0452318
1.01878
-0.0248462
0.718949
-0.00983815
0.443134
-0.00263031
0.223248
9.49774e-05
0.0802377
0.0116862
-0.0045445
0.317692
-0.0119876
0.836632
-0.0209576
1.24469
-0.0312906
1.55381
-0.0431874
1.83896
-0.0565861
2.11228
-0.0721443
2.3951
-0.0896844
2.69881
-0.108488
3.00565
-0.125864
3.29891
-0.134596
2.98622
-0.128053
2.25862
-0.105708
1.72357
-0.078155
1.3188
-0.0451301
0.985752
-0.0182016
0.692021
-0.00224687
0.427179
0.00271381
0.218287
-0.00142394
0.0843754
0.0102623
-0.00456275
0.322254
-0.0119621
0.844032
-0.0205936
1.25332
-0.0306156
1.56383
-0.0422451
1.85059
-0.0554139
2.12545
-0.07089
2.41057
-0.0887102
2.71663
-0.108518
3.02545
-0.128214
3.31861
-0.13928
2.99729
-0.13474
2.25408
-0.118352
1.70719
-0.0851107
1.28556
-0.0459523
0.946593
-0.00725575
0.653324
0.0244955
0.395428
0.036734
0.206049
0.0253994
0.09571
0.0356616
-0.00444335
0.326698
-0.0116429
0.851231
-0.0200661
1.26175
-0.0297635
1.57353
-0.0409957
1.86182
-0.0538861
2.13834
-0.0692272
2.42591
-0.087195
2.7346
-0.107616
3.04588
-0.128671
3.33966
-0.142696
3.01132
-0.14387
2.25525
-0.124848
1.68816
-0.0939082
1.25462
-0.0471096
0.899795
0.00159752
0.604617
0.0448735
0.352152
0.0466947
0.204228
0.0205476
0.121857
0.0562092
-0.00430097
0.330999
-0.0113662
0.858297
-0.0194059
1.26979
-0.0287243
1.58285
-0.0396576
1.87276
-0.0522431
2.15092
-0.0673878
2.44106
-0.0854325
2.75264
-0.106454
3.0669
-0.129316
3.36252
-0.145219
3.02722
-0.148588
2.25862
-0.138948
1.67852
-0.106554
1.22223
-0.057327
0.850568
0.0155004
0.531789
0.115192
0.25246
0.191844
0.127576
0.181576
0.132124
0.237786
-0.00414906
0.335148
-0.0110502
0.865198
-0.0190789
1.27782
-0.0283891
1.59216
-0.0394506
1.88382
-0.0524903
2.16396
-0.0685435
2.45711
-0.0881487
2.77225
-0.111764
3.09051
-0.138685
3.38945
-0.160802
3.04934
-0.171515
2.26934
-0.161817
1.66883
-0.133891
1.1943
-0.0780695
0.794746
-0.0220437
0.475764
-0.0712411
0.301657
-0.357902
0.414237
-0.941064
0.715286
0.899907
-1.60319
-0.00398229
0.33913
-0.0107595
0.871975
-0.0185039
1.28556
-0.0276342
1.60129
-0.0386285
1.89481
-0.0517654
2.1771
-0.0682223
2.47357
-0.0887748
2.7928
-0.114267
3.11601
-0.144891
3.42007
-0.171577
3.07602
-0.186029
2.28379
-0.194535
1.67733
-0.178105
1.17787
-0.152666
0.769306
-0.243815
0.566913
-0.693156
0.750999
-1.44095
1.16203
-2.04892
1.32326
1.21699
-2.36601
-0.00375057
0.342881
-0.0102097
0.878434
-0.0177753
1.29313
-0.0267078
1.61022
-0.0375257
1.90563
-0.0507471
2.19032
-0.0675895
2.49041
-0.0889887
2.8142
-0.116289
3.14331
-0.150344
3.45412
-0.183571
3.10925
-0.209452
2.30967
-0.218901
1.68678
-0.20994
1.16891
-0.296344
0.855711
-0.7535
1.02407
-1.54284
1.54034
-2.10923
1.72842
-2.34868
1.56271
1.33135
-2.46303
-0.00359218
0.346473
-0.00976421
0.884606
-0.0169667
1.30033
-0.0256628
1.61892
-0.0363504
1.91632
-0.0495909
2.20356
-0.066713
2.50753
-0.0889428
2.83643
-0.118015
3.17238
-0.155776
3.49188
-0.194577
3.14805
-0.224504
2.3396
-0.253542
1.71582
-0.335026
1.25039
-0.686693
1.20738
-1.43623
1.7736
-2.02632
2.13043
-2.26619
1.96829
-2.37947
1.67599
1.39571
-2.44383
-0.00329449
0.349767
-0.00903689
0.890349
-0.0159743
1.30726
-0.0244004
1.62734
-0.0349047
1.92682
-0.0481454
2.2168
-0.0655213
2.52491
-0.088434
2.85934
-0.119154
3.2031
-0.160459
3.53319
-0.207027
3.19462
-0.251831
2.3844
-0.294715
1.7587
-0.475441
1.43112
-1.09329
1.82523
-1.78686
2.46717
-2.10799
2.45156
-2.25634
2.11663
-2.33843
1.75808
1.46153
-2.40424
-0.00324806
0.353015
-0.00895456
0.896055
-0.0157857
1.3141
-0.0242492
1.63581
-0.0350374
1.93761
-0.0485655
2.23033
-0.0664352
2.54278
-0.0903331
2.88324
-0.122845
3.23561
-0.167799
3.57814
-0.220064
3.24688
-0.266308
2.43064
-0.357102
1.8495
-0.748135
1.82215
-1.48936
2.56646
-1.96305
2.94086
-2.16295
2.65147
-2.26919
2.22287
-2.34623
1.83512
1.52506
-2.40976
-0.00331393
0.356329
-0.00919006
0.901931
-0.0164744
1.32138
-0.0253816
1.64471
-0.0366254
1.94885
-0.0508123
2.24452
-0.0695799
2.56155
-0.094681
2.90834
-0.129145
3.27007
-0.177985
3.62698
-0.235368
3.30427
-0.298746
2.49402
-0.488115
2.03887
-1.04636
2.3804
-1.67756
3.19766
-1.95352
3.21681
-2.10047
2.79842
-2.21427
2.33667
-2.30776
1.92862
1.58673
-2.36943
-0.00339641
0.359726
-0.00968684
0.908222
-0.0172767
1.32897
-0.0266679
1.6541
-0.0385105
1.9607
-0.0533555
2.25936
-0.0729855
2.58118
-0.0994293
2.93479
-0.135876
3.30652
-0.188326
3.67943
-0.251118
3.36706
-0.337121
2.58002
-0.61868
2.32043
-1.26323
3.02494
-1.75269
3.68712
-1.95983
3.42395
-2.0998
2.93839
-2.2235
2.46037
-2.33397
2.03909
1.64531
-2.39255
-0.00334319
0.363069
-0.00976807
0.914646
-0.0179676
1.33717
-0.0279086
1.66405
-0.0402332
1.97302
-0.055792
2.27492
-0.0763945
2.60178
-0.104071
2.96246
-0.142398
3.34485
-0.197665
3.7347
-0.264991
3.43438
-0.390426
2.70546
-0.776332
2.70633
-1.4099
3.65851
-1.76304
4.04026
-1.93599
3.5969
-2.03791
3.04031
-2.12645
2.54891
-2.19376
2.1064
1.63812
-2.18657
-0.00330251
0.366371
-0.0101996
0.921544
-0.0186917
1.34566
-0.0291751
1.67453
-0.04223
1.98608
-0.0585084
2.2912
-0.0799913
2.62326
-0.109037
2.99151
-0.149262
3.38507
-0.206337
3.79178
-0.28541
3.51346
-0.455492
2.87554
-0.90662
3.15746
-1.46227
4.21416
-1.72435
4.30235
-1.87626
3.74881
-1.9695
3.13355
-1.97103
2.55044
-1.90215
2.03752
1.60306
-1.8671
-0.00309025
0.369462
-0.00993997
0.928393
-0.0190999
1.35482
-0.0300963
1.68553
-0.0434791
1.99946
-0.0602156
2.30793
-0.0822006
2.64525
-0.111583
3.02089
-0.152115
3.4256
-0.208459
3.84812
-0.293657
3.59865
-0.498374
3.08026
-0.988086
3.64717
-1.42958
4.65565
-1.5949
4.46766
-1.66204
3.81595
-1.66656
3.13807
-1.519
2.40288
-1.01889
1.53741
0.584176
-0.00261198
0.372074
-0.0101222
0.935903
-0.0195066
1.36421
-0.0311856
1.6972
-0.0457505
2.01402
-0.0638207
2.326
-0.0876013
2.66903
-0.119747
3.05304
-0.164323
3.47018
-0.227238
3.91103
-0.330953
3.70237
-0.585686
3.33499
-1.12381
4.18529
-1.48218
5.01402
-1.58166
4.56715
-1.57963
3.81391
-1.47617
3.03462
-1.23687
2.16358
-0.63323
0.933771
-0.0490544
-0.00220309
0.374277
-0.00915267
0.942853
-0.0193093
1.37436
-0.0317942
1.70969
-0.0471024
2.02933
-0.0664713
2.34537
-0.0922234
2.69478
-0.126986
3.0878
-0.175753
3.51895
-0.244804
3.98008
-0.366607
3.82417
-0.680861
3.64924
-1.24111
4.74554
-1.5031
5.27601
-1.56155
4.62559
-1.53959
3.79196
-1.33732
2.83234
-0.78454
1.6108
-0.109498
0.258729
-0.158552
-0.00163646
0.375913
-0.00883173
0.950048
-0.0188517
1.38438
-0.0319172
1.72276
-0.0484138
2.04583
-0.0691171
2.36608
-0.0966694
2.72233
-0.134322
3.12545
-0.186799
3.57143
-0.264089
4.05737
-0.41324
3.97332
-0.786205
4.02221
-1.32077
5.28011
-1.49674
5.45199
-1.52813
4.65698
-1.43987
3.7037
-1.10344
2.4959
-0.314619
0.821986
0.0252228
-0.0811132
-0.133329
-0.00046613
0.376379
-0.00647498
0.956057
-0.0172394
1.39515
-0.0311175
1.73663
-0.0481071
2.06282
-0.069972
2.38794
-0.0994223
2.75178
-0.139415
3.16544
-0.194714
3.62672
-0.280527
4.14319
-0.454525
4.14732
-0.891839
4.45952
-1.3639
5.75216
-1.48185
5.56994
-1.48425
4.65939
-1.26057
3.48001
-0.689001
1.92434
-0.0626777
0.195663
0.0307909
-0.174582
-0.102538
0.000415522
0.375964
-0.00476567
0.961238
-0.0149805
1.40536
-0.0292324
1.75089
-0.0471946
2.08078
-0.0703179
2.41106
-0.101317
2.78278
-0.143713
3.20784
-0.202067
3.68508
-0.297282
4.2384
-0.49929
4.34933
-0.986909
4.94714
-1.36191
6.12716
-1.42494
5.63297
-1.37911
4.61356
-1.0903
3.1912
-0.324357
1.15839
0.00497805
-0.133672
0.0153633
-0.184967
-0.0871751
0.00329023
0.372674
0.000476518
0.964052
-0.0107134
1.41655
-0.025682
1.76585
-0.0435742
2.09867
-0.0675717
2.43506
-0.0999926
2.8152
-0.14403
3.25188
-0.204992
3.74604
-0.30821
4.34162
-0.534961
4.57608
-1.04641
5.45859
-1.32227
6.40303
-1.36433
5.67503
-1.22561
4.47484
-0.775032
2.74063
-0.070954
0.454312
0.0458064
-0.250433
0.0251396
-0.1643
-0.0620355
0.00485555
0.367818
0.00333746
0.96557
-0.00588551
1.42577
-0.0199189
1.77989
-0.0383823
2.11714
-0.0633293
2.46001
-0.0966473
2.84852
-0.142293
3.29752
-0.205792
3.80954
-0.31697
4.4528
-0.574294
4.8334
-1.0692
5.95349
-1.2608
6.59464
-1.26976
5.68398
-1.05074
4.25582
-0.461524
2.15141
-0.0145827
0.00737123
-0.00338918
-0.261626
0.0069729
-0.174662
-0.0550626
0.00859194
0.359226
0.0100426
0.96412
0.00257332
1.43324
-0.011093
1.79355
-0.0292062
2.13525
-0.0541755
2.48498
-0.0878187
2.88216
-0.133557
3.34326
-0.198522
3.8745
-0.315804
4.57008
-0.593267
5.11087
-1.04554
6.40576
-1.16622
6.71532
-1.15386
5.67163
-0.897976
3.99994
-0.265873
1.5193
-0.0705768
-0.187925
-0.0377994
-0.294404
-0.0129669
-0.199495
-0.0680295
0.0118085
0.347418
0.0171329
0.958795
0.0128397
1.43754
0.0020315
1.80436
-0.0169951
2.15428
-0.0415769
2.50956
-0.0747285
2.91531
-0.120586
3.38912
-0.186099
3.94002
-0.307072
4.69105
-0.592601
5.3964
-0.9787
6.79186
-1.04942
6.78603
-0.978715
5.60092
-0.683192
3.70442
-0.0836198
0.919731
-0.000351265
-0.271193
-0.0112074
-0.283547
-0.00531379
-0.205388
-0.0733432
0.0183092
0.329109
0.0298916
0.947213
0.0282632
1.43917
0.0176482
1.81498
0.00075883
2.17117
-0.0212873
2.53161
-0.0529638
2.94699
-0.0968743
3.43303
-0.160363
4.00351
-0.280526
4.81122
-0.554903
5.67077
-0.864871
7.10183
-0.898572
6.81973
-0.804017
5.50637
-0.460244
3.36064
0.0453435
0.414144
0.0606112
-0.286461
0.0421719
-0.265108
0.015386
-0.178602
-0.0579572
0.0244362
0.304672
0.0431998
0.928449
0.047334
1.43503
0.0406086
1.8217
0.0272856
2.18449
0.00587641
2.55302
-0.0235578
2.97643
-0.0645954
3.47407
-0.124799
4.06371
-0.238896
4.92531
-0.480826
5.91271
-0.703445
7.32445
-0.738457
6.85475
-0.622881
5.39079
-0.301282
3.03904
-0.00539219
0.118254
0.0178408
-0.309694
0.030304
-0.277571
0.015026
-0.163324
-0.0429313
0.0345694
0.270103
0.0643314
0.898687
0.0748758
1.42449
0.0719116
1.82467
0.0623478
2.19405
0.0444597
2.5709
0.0186324
3.00225
-0.0181011
3.5108
-0.0711718
4.11678
-0.167363
5.02151
-0.361536
6.10688
-0.514149
7.47706
-0.543471
6.88407
-0.452119
5.29944
-0.161089
2.74801
-0.0383787
-0.00445624
-0.0176376
-0.330435
0.0130956
-0.308304
0.012886
-0.163115
-0.0300452
0.0440697
0.226033
0.0868107
0.855946
0.107945
1.40335
0.112851
1.81976
0.108219
2.19868
0.0943107
2.58481
0.0743671
3.0222
0.0447039
3.54046
-0.00380741
4.16529
-0.0733635
5.09106
-0.202691
6.2362
-0.284965
7.55934
-0.304005
6.90311
-0.247174
5.24261
-0.0280281
2.52887
-0.0527859
0.0203016
-0.0574293
-0.325792
-0.0138576
-0.351876
0.0186397
-0.195612
-0.0114055
0.0565191
0.169514
0.11803
0.794435
0.153554
1.36783
0.165854
1.80746
0.167438
2.1971
0.159417
2.59283
0.146792
3.03482
0.12733
3.55993
0.0976595
4.19496
0.0568025
5.13192
0.0175717
6.27544
-0.0193124
7.59622
-0.0328256
6.91662
-0.0914784
5.30126
-0.1445
2.58189
-0.383801
0.259603
-0.405544
-0.304049
-0.279998
-0.477422
-0.0958917
-0.379719
-0.107297
0.0595222
0.109992
0.148092
0.705865
0.204681
1.31124
0.232155
1.77999
0.243314
2.18594
0.242522
2.59363
0.238292
3.03905
0.23023
3.56799
0.219838
4.20535
0.207733
5.14402
0.282453
6.20072
0.346768
7.53191
0.281413
6.98198
0.0442498
5.53843
-0.354316
2.98045
-0.731233
0.636521
-0.742126
-0.293156
-0.562591
-0.656957
-0.260839
-0.68147
-0.368136
0.0508323
0.0591596
0.179295
0.577402
0.270905
1.21963
0.314612
1.73628
0.336032
2.16452
0.345949
2.58371
0.349787
3.03521
0.357018
3.56076
0.371486
4.19089
0.404375
5.11113
0.573293
6.0318
0.780564
7.32463
0.841677
6.92086
0.811615
5.56849
0.361728
3.43034
-0.237706
1.23595
-0.595432
0.064569
-0.620655
-0.631734
-0.335186
-0.966939
-0.703323
0.0356272
0.0235324
0.212827
0.400203
0.336788
1.09567
0.412958
1.66011
0.452104
2.12537
0.475199
2.56061
0.487366
3.02305
0.508546
3.53958
0.5474
4.15203
0.633967
5.02457
0.954539
5.71123
1.47182
6.80736
1.87914
6.51354
2.19484
5.25278
1.96991
3.65528
1.23372
1.97214
0.608726
0.689567
0.169216
-0.192223
-0.0340054
-0.763718
-0.737328
0.0312531
-0.0077207
0.232873
0.198583
0.427951
0.900592
0.534434
1.55363
0.588047
2.07176
0.624368
2.52429
0.64879
2.99862
0.681433
3.50693
0.749339
4.08413
0.895522
4.87838
1.32427
5.28248
2.0927
6.03892
2.49131
6.11494
2.69201
5.05208
2.5307
3.81659
2.02318
2.47966
1.46835
1.24439
0.939308
0.336824
0.368472
-0.192882
-0.368857
0.0279602
-0.0356809
0.173697
0.0528459
0.479068
0.595221
0.662568
1.37013
0.752872
1.98146
0.803119
2.47405
0.843356
2.95839
0.878461
3.47183
0.956201
4.00639
1.10512
4.72947
1.46721
4.92039
2.2417
5.26443
2.60866
5.74798
2.78177
4.87898
2.69069
3.90767
2.2516
2.91874
1.61822
1.87777
0.962684
0.992362
0.411361
0.358442
0.0425041
0.00881015
-0.044491
0.0906533
-0.0289973
0.407554
0.27832
0.66786
1.10982
0.7922
1.85712
0.828258
2.43799
0.838206
2.94844
0.828625
3.48141
0.827531
4.00748
0.871812
4.68518
0.985796
4.8064
1.36293
4.8873
1.56934
5.54157
1.58801
4.8603
1.51214
3.98354
1.31022
3.12065
0.971587
2.21641
0.610352
1.3536
0.251081
0.717713
0.293585
-0.0013319
-0.0431591
0.0371392
-0.0674684
0.23144
0.0840192
0.500281
0.840979
0.649653
1.70775
0.701374
2.38627
0.716305
2.93351
0.711122
3.48659
0.694704
4.0239
0.708762
4.67113
0.756959
4.75821
0.988374
4.65589
1.20786
5.32208
1.21327
4.85489
1.14958
4.04724
1.00647
3.26376
0.759542
2.46334
0.471408
1.64173
0.191099
0.998022
0.484684
-0.000512408
-0.0426467
0.0238305
-0.0918113
0.111438
-0.00358819
0.354083
0.598334
0.496205
1.56562
0.557754
2.32472
0.577609
2.91365
0.581135
3.48307
0.564277
4.04076
0.555284
4.68012
0.575532
4.73796
0.716503
4.51492
0.889044
5.14954
0.886372
4.85756
0.818927
4.11468
0.705016
3.37767
0.532408
2.63594
0.320169
1.85397
0.121601
1.19659
0.606285
0.00476436
-0.0474111
0.0319871
-0.119034
0.0835187
-0.0551197
0.259258
0.422595
0.378566
1.44631
0.429295
2.27399
0.442105
2.90084
0.447344
3.47783
0.439419
4.04868
0.430072
4.68947
0.431456
4.73657
0.513082
4.43329
0.631132
5.03149
0.624849
4.86384
0.558291
4.18124
0.467245
3.46872
0.346226
2.75696
0.200071
2.00013
0.0653213
1.33134
0.671606
0.0334385
-0.0808495
0.0861264
-0.171722
0.121001
-0.0899946
0.17946