/*--------------------------------*- C++ -*----------------------------------*\
| =========                 |                                                 |
| \\      /  F ield         | OpenFOAM: The Open Source CFD Toolbox           |
|  \\    /   O peration     | Version:  v2012                                 |
|   \\  /    A nd           | Website:  www.openfoam.com                      |
|    \\/     M anipulation  |                                                 |
\*---------------------------------------------------------------------------*/
FoamFile
{
    version     2.0;
    format      ascii;
    class       volScalarField;
    location    "12";
    object      p;
}
// * * * * * * * * * * * * * * * * * * * * * * * * * * * * * * * * * * * * * //

dimensions      [0 2 -2 0 0 0 0];


internalField   nonuniform List<scalar> 
2200
(
0.432793
0.411334
0.395536
0.379941
0.365534
0.353365
0.343308
0.335486
0.329975
0.327104
0.327348
0.330657
0.336479
0.344536
0.354759
0.367048
0.381537
0.39718
0.413007
0.43448
0.365114
0.361902
0.359133
0.355234
0.350095
0.34385
0.33747
0.331813
0.327492
0.325107
0.325342
0.328207
0.332869
0.338773
0.345326
0.351682
0.356899
0.360858
0.363665
0.36689
0.324523
0.324929
0.32739
0.329204
0.330095
0.329592
0.327958
0.325506
0.323055
0.32143
0.32174
0.323871
0.326687
0.329405
0.331226
0.331864
0.331071
0.329322
0.326904
0.326517
0.301443
0.303035
0.306068
0.308971
0.311909
0.314421
0.316139
0.316778
0.316689
0.316338
0.316708
0.317606
0.318106
0.317772
0.316285
0.313937
0.311117
0.308294
0.305315
0.303735
0.287616
0.289437
0.292576
0.295838
0.298957
0.302029
0.304781
0.306989
0.308563
0.309483
0.309856
0.309614
0.308596
0.306756
0.304256
0.30136
0.298354
0.295175
0.2921
0.290287
0.28255
0.283875
0.286359
0.289388
0.292418
0.295199
0.297511
0.299639
0.301492
0.302865
0.303321
0.302801
0.301619
0.299963
0.297936
0.295358
0.29247
0.289526
0.28709
0.285781
0.282972
0.283682
0.285197
0.287618
0.290227
0.292536
0.294461
0.296231
0.297756
0.298943
0.299497
0.299285
0.298511
0.297327
0.295811
0.293793
0.291383
0.289084
0.287612
0.286916
0.284612
0.28488
0.285595
0.287011
0.2887
0.290406
0.292073
0.293668
0.29504
0.296157
0.296824
0.29686
0.296396
0.295527
0.294406
0.293067
0.291619
0.290359
0.289707
0.289421
0.284059
0.284124
0.284323
0.284845
0.285594
0.286539
0.287772
0.289193
0.290619
0.291924
0.292851
0.293118
0.292877
0.292269
0.291626
0.291074
0.290579
0.290227
0.290103
0.290057
0.281154
0.281162
0.281221
0.281431
0.281805
0.282303
0.283109
0.284221
0.285538
0.286963
0.288184
0.288862
0.289004
0.288915
0.288769
0.288711
0.288643
0.288621
0.288653
0.288643
0.277722
0.277684
0.277813
0.278082
0.278496
0.279048
0.279801
0.280756
0.281983
0.28345
0.284851
0.285909
0.286533
0.286899
0.28707
0.287144
0.287134
0.287109
0.287114
0.287119
0.274274
0.274296
0.274436
0.274751
0.275227
0.275877
0.276751
0.27785
0.279261
0.280938
0.282628
0.283987
0.284947
0.285504
0.285861
0.286033
0.28608
0.286084
0.286086
0.286087
0.270394
0.270415
0.27053
0.270781
0.271225
0.271872
0.272827
0.274111
0.275795
0.277882
0.28008
0.28183
0.28311
0.283935
0.284465
0.284798
0.284997
0.285115
0.285175
0.285175
0.265743
0.265739
0.265896
0.266148
0.266577
0.267262
0.268289
0.269751
0.271753
0.274336
0.277166
0.279497
0.281124
0.282299
0.2831
0.283635
0.283985
0.284205
0.284316
0.284321
0.260423
0.26042
0.260596
0.260934
0.261474
0.262301
0.263531
0.265295
0.267735
0.270934
0.274491
0.277488
0.279648
0.281211
0.282256
0.282957
0.283407
0.28368
0.283811
0.283817
0.254418
0.25442
0.25464
0.255088
0.255801
0.256867
0.258426
0.26064
0.263691
0.267699
0.272163
0.275964
0.278748
0.280691
0.282008
0.282887
0.283451
0.283788
0.283947
0.283948
0.247695
0.247706
0.247979
0.248513
0.249384
0.250718
0.252684
0.255484
0.25934
0.264395
0.270013
0.274783
0.278264
0.280693
0.28235
0.283449
0.284152
0.284568
0.284763
0.284764
0.239735
0.239751
0.240119
0.240827
0.241959
0.243661
0.24615
0.249695
0.254572
0.260952
0.268
0.273959
0.278294
0.281331
0.283406
0.284788
0.285682
0.286222
0.286476
0.286475
0.230482
0.230497
0.230942
0.231808
0.233236
0.235427
0.238632
0.243183
0.249393
0.25745
0.266269
0.273687
0.279073
0.282847
0.285423
0.287133
0.288228
0.288874
0.289173
0.28917
0.219158
0.21921
0.219847
0.221042
0.222934
0.225785
0.229929
0.235784
0.243714
0.253882
0.264874
0.274056
0.280704
0.285358
0.288531
0.290643
0.29201
0.292834
0.293223
0.293221
0.205543
0.205573
0.206362
0.207904
0.210416
0.214233
0.219708
0.227344
0.237506
0.250314
0.263947
0.275241
0.283403
0.289136
0.293059
0.295678
0.297362
0.298351
0.298803
0.298784
0.188312
0.188466
0.189657
0.191857
0.195295
0.200395
0.207697
0.217709
0.230746
0.246806
0.26358
0.277354
0.287298
0.294299
0.29911
0.302326
0.304415
0.305676
0.306263
0.306256
0.166784
0.166903
0.16849
0.171604
0.176487
0.18364
0.193569
0.206762
0.223446
0.243434
0.263886
0.280527
0.29255
0.301077
0.307016
0.311065
0.313709
0.315277
0.315987
0.315932
0.138051
0.13865
0.141287
0.146021
0.153295
0.163465
0.177132
0.194588
0.215803
0.240445
0.265105
0.28498
0.299354
0.309648
0.31691
0.321925
0.325288
0.327347
0.328313
0.328243
0.100201
0.10106
0.105422
0.113344
0.12466
0.13959
0.158448
0.18129
0.207975
0.237969
0.26728
0.290675
0.307632
0.319912
0.328791
0.335145
0.339546
0.342349
0.343712
0.343488
0.0497782
0.0505057
0.0587272
0.0721495
0.0902587
0.112093
0.137739
0.16725
0.20034
0.236294
0.270607
0.297738
0.317491
0.331999
0.342688
0.350594
0.35634
0.360033
0.36146
0.361094
-0.0203477
-0.0157929
0.00225351
0.0254144
0.0523621
0.0823577
0.11589
0.152974
0.193134
0.235735
0.275739
0.307326
0.330651
0.348222
0.361633
0.37195
0.380006
0.386109
0.388607
0.388639
-0.104194
-0.0879734
-0.0565288
-0.0225906
0.0136746
0.0522149
0.0940871
0.138892
0.186309
0.235967
0.282299
0.319095
0.346721
0.368066
0.385016
0.39872
0.409691
0.418199
0.425086
0.426099
-0.168845
-0.151165
-0.110977
-0.0691905
-0.0242957
0.0230516
0.0731538
0.125427
0.179976
0.236431
0.288701
0.330155
0.361328
0.385465
0.404528
0.419974
0.432552
0.441758
0.447776
0.448623
-0.216934
-0.200997
-0.156738
-0.110301
-0.0586208
-0.00381922
0.0533986
0.112593
0.173889
0.236647
0.294236
0.339467
0.373068
0.398719
0.418599
0.434176
0.446877
0.456113
0.461999
0.462941
-0.256363
-0.240506
-0.194312
-0.145117
-0.0881922
-0.0278631
0.0350866
0.100366
0.16763
0.235933
0.298041
0.346186
0.381404
0.407847
0.428078
0.443631
0.456273
0.465288
0.471579
0.472259
-0.29019
-0.274007
-0.225647
-0.174254
-0.113484
-0.0493088
0.01817
0.0885638
0.160932
0.234197
0.300421
0.351197
0.387822
0.414945
0.435544
0.45124
0.463812
0.472892
0.478851
0.479803
-0.319775
-0.303655
-0.252816
-0.199059
-0.135359
-0.0685482
0.0025349
0.0771629
0.153976
0.231841
0.30199
0.355319
0.393456
0.421432
0.442452
0.458355
0.470854
0.479975
0.485694
0.486614
-0.346305
-0.330416
-0.277678
-0.221344
-0.155079
-0.0860364
-0.011919
0.0662509
0.146994
0.229151
0.303192
0.359295
0.39905
0.427861
0.449278
0.465387
0.477817
0.486926
0.492535
0.493386
-0.37079
-0.354861
-0.30136
-0.242599
-0.173905
-0.102504
-0.0255438
0.05572
0.140019
0.226255
0.304226
0.363081
0.404468
0.434243
0.456103
0.47235
0.484783
0.493815
0.499369
0.500194
-0.393792
-0.377385
-0.323854
-0.26322
-0.192527
-0.118687
-0.0389593
0.0451465
0.132724
0.22272
0.304389
0.366194
0.409598
0.440505
0.462972
0.479616
0.492087
0.501122
0.506586
0.507329
-0.415162
-0.3987
-0.344851
-0.28298
-0.210904
-0.134896
-0.0526492
0.0340984
0.124755
0.218384
0.30408
0.369287
0.414913
0.447208
0.470347
0.487173
0.499699
0.508618
0.514047
0.514856
-0.435282
-0.418901
-0.364553
-0.301817
-0.228764
-0.151037
-0.0666716
0.0224912
0.116099
0.213323
0.303015
0.371537
0.419754
0.45367
0.47784
0.495266
0.508021
0.516926
0.522287
0.522975
-0.454911
-0.438155
-0.383435
-0.319961
-0.246026
-0.166926
-0.0808304
0.0104564
0.106734
0.207201
0.30057
0.373019
0.424582
0.460931
0.486257
0.504178
0.516926
0.525675
0.530956
0.531635
-0.474384
-0.456844
-0.401869
-0.337645
-0.262791
-0.182512
-0.0949788
-0.00188932
0.0967084
0.200189
0.297661
0.374136
0.428896
0.467683
0.494764
0.513423
0.526534
0.535418
0.540371
0.540855
-0.493555
-0.475239
-0.419969
-0.354968
-0.279207
-0.197865
-0.109095
-0.0144591
0.086188
0.192459
0.29351
0.373855
0.432602
0.474815
0.504186
0.524061
0.537221
0.545358
0.55005
0.5504
-0.512188
-0.493347
-0.437674
-0.371917
-0.295332
-0.213049
-0.123197
-0.0272308
0.0751395
0.183698
0.287805
0.372393
0.435441
0.481597
0.514101
0.535545
0.548824
0.556802
0.560644
0.560506
-0.530154
-0.510978
-0.454866
-0.388428
-0.311145
-0.228061
-0.137286
-0.0401987
0.06358
0.174089
0.281364
0.369694
0.436742
0.487313
0.5239
0.548563
0.562924
0.568972
0.570528
0.569863
-0.547413
-0.528002
-0.471444
-0.40442
-0.326563
-0.242827
-0.151295
-0.0532929
0.0516893
0.163872
0.273576
0.365263
0.436906
0.492199
0.533839
0.563067
0.579767
0.584151
0.581262
0.578239
-0.563949
-0.544318
-0.487353
-0.419824
-0.3415
-0.257248
-0.165127
-0.066401
0.0395475
0.153022
0.264478
0.359163
0.434612
0.495081
0.542807
0.578658
0.601201
0.604777
0.596496
0.600194
-0.579754
-0.559952
-0.502557
-0.434584
-0.355879
-0.271231
-0.178665
-0.0793872
0.0272517
0.14166
0.254514
0.351292
0.430148
0.495309
0.548796
0.592778
0.626409
0.630423
0.590431
0.535195
-0.594718
-0.574925
-0.51711
-0.448781
-0.369804
-0.28489
-0.192054
-0.0924665
0.0146078
0.129608
0.243374
0.341424
0.422636
0.491678
0.550999
0.603427
0.652118
0.689614
0.722323
0.77528
-0.608876
-0.58923
-0.531101
-0.462566
-0.383454
-0.298453
-0.205583
-0.105975
0.00117077
0.116294
0.230191
0.328448
0.411294
0.483177
0.543143
0.592803
0.630965
0.659765
0.652233
0.655482
-0.62229
-0.602824
-0.544494
-0.475905
-0.396769
-0.311842
-0.219129
-0.119741
-0.0128919
0.101818
0.215027
0.312572
0.393555
0.4647
0.52218
0.563273
0.571387
0.542491
0.49466
0.489421
-0.635003
-0.615776
-0.557303
-0.488806
-0.409749
-0.325054
-0.232675
-0.133757
-0.0275114
0.0863429
0.198213
0.294143
0.37189
0.435984
0.48729
0.502094
0.470204
0.403766
0.332592
0.326723
-0.64701
-0.628131
-0.56956
-0.501294
-0.422412
-0.338101
-0.246208
-0.147961
-0.0426382
0.0698512
0.1795
0.272794
0.345146
0.396208
0.423627
0.408124
0.359987
0.254684
0.163209
0.148632
-0.658704
-0.640282
-0.581636
-0.513705
-0.435085
-0.35126
-0.259972
-0.162573
-0.0584822
0.0521908
0.158795
0.24781
0.312761
0.349736
0.339734
0.293814
0.183882
0.0526104
-0.0626785
-0.0849661
-0.670871
-0.652908
-0.594154
-0.526589
-0.448284
-0.364972
-0.274368
-0.177962
-0.0752486
0.0334474
0.136339
0.220366
0.276883
0.290606
0.24156
0.142961
-0.0328512
-0.199064
-0.3347
-0.360114
-0.68396
-0.666351
-0.607356
-0.540135
-0.462158
-0.379341
-0.289462
-0.194085
-0.092883
0.0134203
0.112184
0.18977
0.235994
0.219942
0.136019
-0.0340871
-0.266538
-0.50484
-0.701165
-0.750208
-0.697985
-0.680615
-0.621225
-0.554347
-0.476649
-0.394306
-0.305193
-0.21093
-0.111429
-0.00780813
0.08634
0.156464
0.187323
0.133849
0.00997588
-0.21988
-0.501046
-0.841694
-1.20365
-1.34215
-0.712961
-0.695754
-0.635786
-0.569298
-0.491765
-0.409895
-0.321606
-0.228539
-0.130801
-0.0300629
0.0589538
0.121252
0.13308
0.036663
-0.146217
-0.415239
-0.714386
-1.1349
-1.79975
-2.41232
-0.728853
-0.711712
-0.651029
-0.585037
-0.50745
-0.426054
-0.338601
-0.2467
-0.150723
-0.0530924
0.0309436
0.0838038
0.07571
-0.0586349
-0.304133
-0.622138
-0.90461
-1.23039
-1.92814
-3.71148
-0.745646
-0.728407
-0.666997
-0.601653
-0.523743
-0.442918
-0.35635
-0.26573
-0.1716
-0.0770277
0.00217256
0.0450971
0.0199954
-0.140555
-0.438277
-0.786193
-1.01772
-1.12783
-1.19336
-1.66403
-0.763224
-0.745748
-0.683886
-0.619312
-0.540864
-0.460862
-0.375317
-0.286101
-0.194019
-0.10263
-0.0285108
0.00304142
-0.0466861
-0.203447
-0.51681
-0.841002
-1.04095
-1.09324
-1.05167
-1.10586
-0.781423
-0.763536
-0.701786
-0.637855
-0.558753
-0.479919
-0.395457
-0.307803
-0.218045
-0.129893
-0.060122
-0.0351602
-0.113688
-0.262877
-0.571155
-0.855904
-1.03112
-1.0909
-1.10721
-1.13477
-0.799913
-0.781751
-0.720698
-0.656932
-0.577361
-0.499972
-0.41669
-0.330851
-0.243688
-0.15851
-0.0930936
-0.0689488
-0.165124
-0.328744
-0.621946
-0.86892
-1.02294
-1.04581
-1.07042
-1.06263
-0.818422
-0.799973
-0.740169
-0.67603
-0.59655
-0.520814
-0.438671
-0.354916
-0.270294
-0.187794
-0.126334
-0.101442
-0.21867
-0.406034
-0.679248
-0.881024
-1.01443
-1.01389
-1.02699
-1.02189
-0.836651
-0.818066
-0.759381
-0.694606
-0.616046
-0.542029
-0.460962
-0.379996
-0.297413
-0.216927
-0.156864
-0.126568
-0.270205
-0.485064
-0.748808
-0.901786
-0.968918
-0.990045
-0.985334
-0.992534
-0.853998
-0.835443
-0.777491
-0.712107
-0.635646
-0.562957
-0.483475
-0.406077
-0.325472
-0.245257
-0.181667
-0.136378
-0.292736
-0.565574
-0.833517
-0.928064
-0.896235
-0.949127
-0.966144
-0.975896
-0.869782
-0.851276
-0.793925
-0.728353
-0.654711
-0.581901
-0.50578
-0.432404
-0.35435
-0.27359
-0.204341
-0.147168
-0.298191
-0.612679
-0.907764
-1.06038
-1.05346
-1.06215
-1.06999
-1.07061
-0.883246
-0.865027
-0.808084
-0.742833
-0.671084
-0.599234
-0.526611
-0.458222
-0.38508
-0.306805
-0.23276
-0.178787
-0.312436
-0.651687
-1.01533
-1.35618
-1.47812
-1.43767
-1.39843
-1.36393
-0.892878
-0.874991
-0.818612
-0.754021
-0.683519
-0.613763
-0.544994
-0.482532
-0.422328
-0.352211
-0.269956
-0.210199
-0.322661
-0.691419
-1.05695
-1.50168
-1.74155
-1.66873
-1.5795
-1.51943
-0.897832
-0.880198
-0.824539
-0.760641
-0.69136
-0.624057
-0.55994
-0.504041
-0.45779
-0.416308
-0.329199
-0.291753
-0.358398
-0.598677
-0.848344
-1.1361
-1.28657
-1.2459
-1.12838
-1.06134
-0.896466
-0.879192
-0.824418
-0.761555
-0.693742
-0.629157
-0.570855
-0.525597
-0.498707
-0.501494
-0.469792
-0.435233
-0.374744
-0.373779
-0.323488
-0.314115
-0.319382
-0.275163
-0.233431
-0.188823
-0.887496
-0.870702
-0.817028
-0.755492
-0.689115
-0.62778
-0.576046
-0.544937
-0.554597
-0.612871
-0.686808
-0.600475
-0.3558
-0.115533
0.184305
0.439911
0.561177
0.622135
0.649188
0.665717
-0.869012
-0.853366
-0.801478
-0.741271
-0.676371
-0.618793
-0.573301
-0.5581
-0.609514
-0.755231
-0.953649
-0.775547
-0.348062
0.0953945
0.556866
0.955643
1.1585
1.21234
1.23413
1.2436
-0.840458
-0.825974
-0.775122
-0.716894
-0.654999
-0.60058
-0.559276
-0.555416
-0.63771
-0.850776
-1.21509
-1.0148
-0.347733
0.280622
0.807561
1.17356
1.37216
1.42616
1.44781
1.45402
-0.79912
-0.786587
-0.737715
-0.682788
-0.623651
-0.570302
-0.529214
-0.525232
-0.603171
-0.792987
-1.20049
-0.971859
-0.237033
0.353551
0.837483
1.14283
1.3016
1.35916
1.38579
1.39438
-0.745332
-0.735247
-0.690206
-0.638325
-0.579614
-0.527647
-0.482634
-0.464945
-0.504574
-0.628849
-0.855622
-0.554626
0.0105099
0.452665
0.797226
1.0073
1.11961
1.17883
1.21271
1.22446
-0.682958
-0.675737
-0.633032
-0.583056
-0.526201
-0.472865
-0.421215
-0.383165
-0.37352
-0.400989
-0.419737
-0.110027
0.245746
0.537995
0.748649
0.876191
0.956272
1.008
1.04173
1.05401
-0.616258
-0.608662
-0.567001
-0.519421
-0.465518
-0.410444
-0.352877
-0.298018
-0.24777
-0.198206
-0.0967579
0.14992
0.368654
0.550878
0.669033
0.748753
0.80527
0.845919
0.87454
0.885665
-0.524802
-0.518116
-0.485619
-0.445494
-0.396272
-0.344015
-0.287083
-0.2258
-0.157266
-0.0675741
0.0369749
0.213446
0.373601
0.492135
0.570067
0.625028
0.664946
0.693864
0.71401
0.721327
-0.404709
-0.401707
-0.38364
-0.357614
-0.317279
-0.275858
-0.226777
-0.169498
-0.101724
-0.0126571
0.0902835
0.231271
0.343547
0.425599
0.481755
0.521419
0.549924
0.56774
0.58047
0.582804
-0.28677
-0.285767
-0.277722
-0.26175
-0.237627
-0.207615
-0.169469
-0.121781
-0.0618457
0.0173572
0.110731
0.219933
0.299991
0.358031
0.397706
0.424767
0.443006
0.453825
0.459262
0.460719
-0.183942
-0.183415
-0.179702
-0.172067
-0.159118
-0.140804
-0.114338
-0.0778914
-0.0290497
0.0369163
0.114445
0.196274
0.255165
0.296966
0.324934
0.343283
0.355062
0.362067
0.366027
0.367717
-0.103059
-0.103772
-0.102311
-0.0986242
-0.0921802
-0.0818864
-0.0647705
-0.038551
-0.00131953
0.0503355
0.111708
0.17224
0.215761
0.246188
0.266268
0.279246
0.287627
0.292738
0.29562
0.296379
-0.045027
-0.0461308
-0.046765
-0.0457165
-0.0422125
-0.035635
-0.0242768
-0.00614984
0.0209848
0.0601595
0.107302
0.15207
0.184327
0.20674
0.221482
0.230812
0.236535
0.239514
0.240676
0.240549
-0.00595663
-0.006839
-0.00857213
-0.00944174
-0.00795338
-0.00360993
0.00474473
0.017956
0.0379246
0.0673977
0.103026
0.136234
0.160186
0.176756
0.187493
0.193832
0.197119
0.198186
0.198177
0.197767
0.0183679
0.0177132
0.0159913
0.0143374
0.0143605
0.0167623
0.0228719
0.033261
0.0489239
0.071496
0.0984854
0.123238
0.141086
0.153289
0.160893
0.164955
0.166589
0.166608
0.166151
0.165723
0.0322997
0.031807
0.0305755
0.0292231
0.0287313
0.0296974
0.0337201
0.0415032
0.0539339
0.0717171
0.0926776
0.111465
0.124891
0.133816
0.139095
0.141655
0.142529
0.142354
0.141954
0.141581
0.0404063
0.0400138
0.039294
0.038545
0.0382511
0.038716
0.0412442
0.0465264
0.0558178
0.0696167
0.0860167
0.100435
0.110531
0.117006
0.120729
0.122488
0.12312
0.123064
0.122826
0.122536
0.0460666
0.0457771
0.0453605
0.0449462
0.0448915
0.0454236
0.0472056
0.0507147
0.0571997
0.0673268
0.0797211
0.0905573
0.0980103
0.102712
0.105447
0.106771
0.107251
0.107222
0.107076
0.106856
0.05009
0.049876
0.04955
0.0491085
0.0489746
0.0494607
0.050861
0.0534764
0.0580435
0.0652131
0.0741599
0.0820427
0.0874644
0.0909185
0.0929429
0.0939072
0.0941865
0.0940808
0.0939479
0.0937752
0.0518866
0.0517109
0.051379
0.0508246
0.0505055
0.0507181
0.0516849
0.0537426
0.0571811
0.0624516
0.0689155
0.0746173
0.0785795
0.0811182
0.0825558
0.0831936
0.0833024
0.0831331
0.0829979
0.0828571
0.0514564
0.051311
0.0510074
0.0504584
0.0500864
0.0500768
0.0506085
0.05209
0.0546759
0.0587191
0.063581
0.0678224
0.0707446
0.0725815
0.0735629
0.0739684
0.0739938
0.0738196
0.0737006
0.0735867
0.0495375
0.0494281
0.0491964
0.0487556
0.0484559
0.0483846
0.048659
0.0496483
0.0514757
0.0545103
0.0581875
0.0613824
0.0635347
0.0648573
0.0655318
0.0657993
0.0657938
0.0656441
0.0655491
0.0654609
0.0467938
0.0467187
0.0465524
0.0462205
0.0460048
0.045945
0.0461158
0.0468012
0.0480535
0.0502409
0.0529353
0.0552818
0.0568409
0.0577907
0.0582632
0.0584439
0.0584258
0.0583018
0.0582253
0.0581573
0.043461
0.0434081
0.0432813
0.0430275
0.0428609
0.0428056
0.0429167
0.043418
0.0442953
0.0458611
0.047789
0.049477
0.0505952
0.0512735
0.0516004
0.0517148
0.0516842
0.0515779
0.051513
0.0514604
0.0396437
0.0396033
0.0395001
0.0393056
0.0391701
0.0391129
0.0391737
0.039535
0.0401619
0.0413049
0.0426888
0.0439039
0.044704
0.0451823
0.0454007
0.0454641
0.0454232
0.0453304
0.0452744
0.0452329
0.0354832
0.035453
0.0353696
0.0352213
0.0351101
0.0350563
0.0350819
0.0353314
0.0357758
0.0366088
0.0376126
0.0384905
0.0390536
0.0393838
0.039528
0.0395612
0.03952
0.0394434
0.0393962
0.0393629
0.0310746
0.0310514
0.030987
0.0308793
0.0307915
0.0307451
0.0307523
0.0309193
0.0312279
0.0318198
0.0325436
0.0331744
0.0335708
0.0337997
0.0338937
0.0339067
0.0338661
0.0338011
0.0337617
0.033736
0.0265114
0.0264938
0.0264442
0.0263652
0.0262974
0.0262593
0.0262596
0.0263726
0.0265842
0.0269996
0.0275083
0.0279515
0.028229
0.0283825
0.0284378
0.028435
0.0283955
0.0283398
0.0283073
0.0282879
0.0218386
0.0218254
0.0217871
0.0217282
0.0216743
0.0216427
0.0216382
0.0217128
0.0218556
0.022142
0.022495
0.0227983
0.0229837
0.0230847
0.0231169
0.0231075
0.0230729
0.0230284
0.0230022
0.0229865
0.0170829
0.0170726
0.0170416
0.0169949
0.0169507
0.016923
0.0169134
0.0169558
0.0170487
0.0172412
0.0174846
0.0176889
0.0178105
0.017874
0.0178881
0.0178742
0.0178439
0.0178072
0.0177853
0.0177729
0.0122558
0.0122489
0.012227
0.0121934
0.0121614
0.0121393
0.0121299
0.0121535
0.0122098
0.0123314
0.0124845
0.0126137
0.0126876
0.0127217
0.0127243
0.012709
0.0126842
0.0126561
0.01264
0.0126318
0.00738159
0.00737616
0.00736118
0.00733966
0.00731876
0.00730326
0.00729494
0.00730599
0.00733604
0.00740632
0.00749299
0.00756719
0.00760429
0.00761725
0.00761601
0.00760487
0.00758656
0.00756581
0.00755422
0.00754784
0.00247579
0.00247333
0.00246492
0.00245301
0.0024431
0.00243669
0.00243187
0.00243624
0.00244652
0.00246837
0.00249571
0.00251981
0.00253296
0.00253793
0.00253635
0.00253157
0.0025226
0.00251081
0.00250483
0.00250156
-1.67439
-0.713057
-0.433934
-0.122247
0.091791
0.278213
0.436989
0.598375
0.769545
0.849089
-0.592026
-0.129287
-0.0850117
0.124027
0.275287
0.410615
0.529455
0.633491
0.672117
0.624554
-0.147
0.097433
0.157406
0.303411
0.410093
0.505931
0.585573
0.644777
0.653474
0.663175
0.123761
0.289968
0.331767
0.448496
0.51676
0.584879
0.637411
0.674157
0.686177
0.708486
0.329608
0.445746
0.474569
0.559884
0.606151
0.654917
0.691515
0.718196
0.729997
0.760231
0.486738
0.566683
0.597104
0.650454
0.689014
0.722954
0.749946
0.771571
0.787067
0.814312
0.616754
0.673079
0.700467
0.733086
0.763671
0.789452
0.810904
0.830635
0.84601
0.872157
0.727219
0.767942
0.790487
0.812939
0.835585
0.85622
0.87442
0.893185
0.90867
0.932225
0.826125
0.856222
0.874044
0.890042
0.907193
0.924115
0.940482
0.958438
0.972126
0.994356
0.916741
0.938093
0.95365
0.967395
0.981525
0.995904
1.00977
1.02455
1.03617
1.05586
1.00452
1.0206
1.03468
1.04687
1.0591
1.07074
1.08176
1.09344
1.10115
1.11805
1.09028
1.10332
1.11723
1.12902
1.13975
1.14965
1.15847
1.16662
1.17028
1.18158
1.17954
1.19041
1.20424
1.21378
1.22139
1.22866
1.23583
1.24243
1.24342
1.25069
1.27851
1.28342
1.29144
1.29592
1.29916
1.30356
1.30952
1.31723
1.32104
1.33091
1.39191
1.37819
1.37071
1.36486
1.36209
1.36349
1.37005
1.38257
1.39742
1.42705
1.51241
1.45674
1.42584
1.40889
1.4008
1.40083
1.40956
1.42892
1.4608
1.52997
)
;

boundaryField
{
    wall-4
    {
        type            zeroGradient;
    }
    pressure-outlet-7
    {
        type            fixedValue;
        value           uniform 0;
    }
    velocity-inlet-6
    {
        type            zeroGradient;
    }
    velocity-inlet-5
    {
        type            zeroGradient;
    }
    frontAndBackPlanes
    {
        type            empty;
    }
}


// ************************************************************************* //
