/*--------------------------------*- C++ -*----------------------------------*\
| =========                 |                                                 |
| \\      /  F ield         | OpenFOAM: The Open Source CFD Toolbox           |
|  \\    /   O peration     | Version:  v2012                                 |
|   \\  /    A nd           | Website:  www.openfoam.com                      |
|    \\/     M anipulation  |                                                 |
\*---------------------------------------------------------------------------*/
FoamFile
{
    version     2.0;
    format      ascii;
    class       volScalarField;
    location    "20";
    object      p;
}
// * * * * * * * * * * * * * * * * * * * * * * * * * * * * * * * * * * * * * //

dimensions      [0 2 -2 0 0 0 0];


internalField   nonuniform List<scalar> 
2200
(
0.400143
0.378654
0.362761
0.347112
0.332543
0.320064
0.309734
0.301624
0.29588
0.292904
0.293197
0.296713
0.302853
0.311243
0.321773
0.334397
0.349061
0.364774
0.380705
0.402212
0.332529
0.329276
0.326376
0.322301
0.316884
0.310456
0.303898
0.297972
0.293444
0.290972
0.291272
0.294321
0.299254
0.305488
0.312264
0.318839
0.324369
0.328512
0.331449
0.334722
0.292596
0.292836
0.294926
0.296293
0.296714
0.295911
0.293971
0.291365
0.28887
0.287256
0.287609
0.289817
0.292769
0.295708
0.297887
0.298857
0.298555
0.297308
0.295317
0.295092
0.270025
0.271508
0.274155
0.276658
0.279182
0.28128
0.282441
0.282666
0.282256
0.281817
0.282214
0.283332
0.284263
0.284423
0.283547
0.28166
0.279281
0.276886
0.274296
0.272835
0.255611
0.257555
0.260476
0.263467
0.266446
0.269358
0.271885
0.2738
0.274935
0.275521
0.275995
0.276221
0.275696
0.274231
0.272035
0.269364
0.266551
0.26365
0.260788
0.258863
0.24859
0.25014
0.252402
0.255023
0.257759
0.260473
0.263101
0.265605
0.267653
0.269042
0.269594
0.269175
0.267876
0.265929
0.263689
0.261264
0.25874
0.256258
0.254072
0.252528
0.245654
0.246666
0.247988
0.249918
0.252122
0.2543
0.256391
0.258535
0.260638
0.262361
0.263007
0.262458
0.261271
0.259807
0.258197
0.256375
0.254427
0.252675
0.251441
0.25043
0.243271
0.243908
0.244705
0.246335
0.248263
0.250149
0.251916
0.253629
0.255336
0.256849
0.257673
0.257616
0.257033
0.256142
0.25497
0.253496
0.25187
0.250438
0.249735
0.2491
0.24064
0.240934
0.241577
0.243193
0.245073
0.246992
0.248841
0.250549
0.252109
0.253476
0.254517
0.254936
0.254734
0.254057
0.252921
0.251536
0.250012
0.248644
0.248101
0.247812
0.238324
0.238425
0.238944
0.24027
0.241857
0.243612
0.245496
0.247404
0.249204
0.250787
0.252055
0.252658
0.252501
0.251857
0.250908
0.249835
0.248691
0.247667
0.247271
0.247183
0.236078
0.236054
0.236425
0.237234
0.238284
0.239575
0.241127
0.242948
0.244952
0.246943
0.248548
0.249411
0.249554
0.249256
0.248856
0.248307
0.247774
0.24731
0.247111
0.247107
0.233145
0.233089
0.233346
0.233854
0.234618
0.235609
0.236811
0.238375
0.240295
0.242509
0.244546
0.245957
0.246832
0.247187
0.247219
0.247174
0.247117
0.247027
0.246968
0.24697
0.22973
0.229679
0.229936
0.230393
0.231172
0.232172
0.23342
0.235065
0.237045
0.239454
0.241909
0.243841
0.245202
0.246024
0.246488
0.246772
0.246853
0.246863
0.246852
0.246855
0.225939
0.225922
0.226165
0.226666
0.227527
0.228676
0.230216
0.232168
0.234553
0.237451
0.240463
0.242865
0.244501
0.245662
0.24647
0.246921
0.247114
0.247206
0.247234
0.247236
0.221509
0.221504
0.221708
0.222226
0.223082
0.224285
0.225997
0.228277
0.231212
0.234855
0.2387
0.241816
0.244004
0.24556
0.246645
0.247326
0.247739
0.247981
0.248074
0.248064
0.216087
0.216064
0.216309
0.216866
0.217771
0.219067
0.220941
0.223528
0.227027
0.231517
0.236402
0.240471
0.24343
0.245516
0.247012
0.248015
0.248681
0.249089
0.249259
0.249242
0.20972
0.209682
0.209974
0.210593
0.211651
0.213238
0.215503
0.218638
0.222885
0.228379
0.234449
0.239615
0.243423
0.246145
0.248081
0.24939
0.250248
0.250747
0.250957
0.250932
0.202116
0.202085
0.202464
0.2033
0.204664
0.206678
0.209537
0.213495
0.218812
0.225654
0.233168
0.239578
0.244284
0.247652
0.249997
0.251582
0.252623
0.253231
0.253493
0.253465
0.193197
0.19315
0.193609
0.194661
0.19639
0.198938
0.202556
0.207553
0.214256
0.222832
0.232156
0.240038
0.245813
0.249945
0.252833
0.25481
0.256096
0.256833
0.25714
0.257097
0.18228
0.182246
0.182872
0.184236
0.186439
0.189664
0.194254
0.200606
0.209069
0.219804
0.231353
0.241039
0.248131
0.253202
0.256734
0.259151
0.260742
0.261666
0.262053
0.261999
0.169149
0.169073
0.169852
0.171571
0.174402
0.178589
0.184518
0.192638
0.203346
0.216738
0.230939
0.242754
0.251388
0.257561
0.261897
0.26488
0.26684
0.267973
0.268428
0.26835
0.152567
0.152579
0.153699
0.155991
0.159746
0.165287
0.173038
0.183545
0.197142
0.213785
0.231133
0.245441
0.255883
0.263356
0.2686
0.272213
0.274592
0.275958
0.276516
0.276425
0.131626
0.131582
0.13311
0.13635
0.141551
0.149117
0.159523
0.173259
0.190508
0.21107
0.232076
0.249216
0.261685
0.27064
0.276985
0.281395
0.284342
0.286049
0.286704
0.286551
0.10408
0.104363
0.106809
0.111499
0.118952
0.129668
0.143793
0.161729
0.183486
0.208665
0.233821
0.254129
0.268892
0.279552
0.287202
0.292592
0.296183
0.29822
0.299019
0.29884
0.0672621
0.0678043
0.071877
0.0796587
0.091101
0.106549
0.125781
0.149134
0.176327
0.206804
0.236578
0.260344
0.277616
0.29018
0.299285
0.305825
0.310342
0.312995
0.313986
0.313656
0.017939
0.0185238
0.0262489
0.0395617
0.0575855
0.0797756
0.105878
0.135917
0.169429
0.205823
0.24052
0.267891
0.287798
0.302432
0.313262
0.321223
0.326796
0.329977
0.330972
0.330542
-0.0489298
-0.0454877
-0.0289351
-0.00645281
0.0203561
0.0508848
0.08492
0.122396
0.162948
0.205985
0.246279
0.278033
0.301444
0.318972
0.332244
0.34238
0.349956
0.354339
0.355567
0.355349
-0.126959
-0.114932
-0.0866033
-0.0540969
-0.0176232
0.0216621
0.0638357
0.10906
0.157037
0.207163
0.253824
0.290759
0.318274
0.339383
0.355909
0.368904
0.379208
0.385844
0.388884
0.389331
-0.193068
-0.17639
-0.140772
-0.0999737
-0.0545638
-0.00679359
0.043517
0.0965026
0.151726
0.208657
0.26123
0.302755
0.333848
0.357832
0.376777
0.391761
0.40328
0.411315
0.414566
0.414781
-0.242182
-0.227505
-0.186846
-0.140429
-0.0881631
-0.0332638
0.0243707
0.0844537
0.146373
0.209664
0.26766
0.313223
0.347192
0.373121
0.393372
0.409236
0.42141
0.429359
0.432635
0.433019
-0.282543
-0.268621
-0.224989
-0.175164
-0.11775
-0.0571573
0.00660108
0.0728247
0.140841
0.21012
0.273158
0.322155
0.358053
0.385037
0.405622
0.421539
0.433856
0.441958
0.445514
0.445906
-0.317265
-0.303107
-0.257351
-0.20516
-0.143702
-0.0785992
-0.00982108
0.0616957
0.135211
0.209789
0.277031
0.328474
0.365727
0.393384
0.414441
0.430689
0.44305
0.45131
0.455055
0.455444
-0.347703
-0.333511
-0.285843
-0.231392
-0.166655
-0.0979964
-0.0250803
0.050972
0.129246
0.208373
0.279329
0.33335
0.372015
0.400526
0.421853
0.438129
0.450547
0.458896
0.462672
0.46281
-0.37515
-0.36102
-0.311581
-0.25477
-0.18728
-0.115808
-0.0394752
0.0404301
0.122819
0.206182
0.28098
0.337529
0.377498
0.406719
0.428644
0.44514
0.457428
0.465862
0.46929
0.469383
-0.400259
-0.386295
-0.335449
-0.276306
-0.206324
-0.132467
-0.0532623
0.0299441
0.116045
0.203416
0.281973
0.341049
0.382847
0.413052
0.435264
0.451768
0.463947
0.472147
0.475729
0.475938
-0.423937
-0.409594
-0.357984
-0.296823
-0.22451
-0.148416
-0.0666468
0.0194619
0.108908
0.200049
0.282375
0.344694
0.388335
0.419291
0.441919
0.45858
0.470766
0.478884
0.48238
0.482632
-0.446164
-0.431608
-0.379463
-0.316725
-0.242353
-0.164059
-0.0798508
0.00890862
0.101416
0.196285
0.28261
0.347894
0.393109
0.425321
0.448584
0.465537
0.477805
0.485655
0.489303
0.48955
-0.467146
-0.452677
-0.400085
-0.336075
-0.260021
-0.179642
-0.0931017
-0.00184482
0.0935565
0.191921
0.281981
0.350248
0.398176
0.43176
0.455639
0.472799
0.485163
0.493081
0.496499
0.496687
-0.487404
-0.472785
-0.419901
-0.354859
-0.2775
-0.195278
-0.106586
-0.0129732
0.0850875
0.18652
0.280139
0.352083
0.402764
0.438197
0.463054
0.480633
0.492952
0.500526
0.503863
0.504015
-0.507404
-0.49219
-0.438995
-0.37303
-0.294676
-0.210947
-0.120395
-0.0246872
0.0757163
0.179997
0.277335
0.353174
0.406956
0.444776
0.470913
0.488885
0.501138
0.5086
0.511591
0.511586
-0.527097
-0.511079
-0.457522
-0.390626
-0.311445
-0.226539
-0.134492
-0.0369998
0.0655482
0.172669
0.27371
0.353355
0.410911
0.451683
0.479643
0.498142
0.510007
0.516587
0.519336
0.519202
-0.546304
-0.529555
-0.47556
-0.407716
-0.327771
-0.241926
-0.148682
-0.0496717
0.0548391
0.164461
0.268564
0.35215
0.413926
0.458319
0.488985
0.508532
0.519827
0.525441
0.527239
0.526867
-0.564864
-0.547611
-0.493148
-0.424363
-0.343655
-0.256992
-0.162751
-0.0624693
0.0436808
0.155293
0.262147
0.349909
0.41586
0.464675
0.498995
0.520932
0.531866
0.534384
0.5339
0.53397
-0.582766
-0.565163
-0.510234
-0.440578
-0.359123
-0.271693
-0.176595
-0.0752963
0.0321581
0.145523
0.255057
0.346459
0.41672
0.470262
0.509394
0.535199
0.547338
0.546769
0.541583
0.53902
-0.599984
-0.5821
-0.52674
-0.456325
-0.374183
-0.28604
-0.190194
-0.0880909
0.020407
0.135209
0.246502
0.340328
0.414948
0.474233
0.519678
0.551621
0.569271
0.564086
0.557165
0.562042
-0.616526
-0.598367
-0.542587
-0.471535
-0.388813
-0.30005
-0.203582
-0.100842
0.00841221
0.124192
0.236865
0.333258
0.411715
0.475882
0.527877
0.5681
0.596287
0.584961
0.540568
0.492474
-0.632325
-0.613958
-0.557795
-0.486252
-0.403109
-0.313896
-0.216988
-0.113819
-0.0040409
0.112482
0.22624
0.323986
0.404851
0.473947
0.53274
0.583349
0.626844
0.647176
0.67015
0.720476
-0.647343
-0.628942
-0.572455
-0.500592
-0.417223
-0.327784
-0.230675
-0.127324
-0.0173544
0.099384
0.213412
0.311522
0.393926
0.466063
0.527423
0.578308
0.613659
0.626316
0.605014
0.611306
-0.661547
-0.643284
-0.586534
-0.514495
-0.431041
-0.341572
-0.244474
-0.14121
-0.031432
0.0850694
0.198899
0.296808
0.377995
0.448662
0.507753
0.552117
0.55925
0.523805
0.470944
0.463602
-0.674981
-0.656991
-0.60004
-0.527964
-0.444542
-0.355218
-0.258325
-0.155395
-0.0461473
0.0696138
0.182496
0.278175
0.355928
0.420719
0.472468
0.490409
0.461777
0.394606
0.324466
0.315297
-0.687686
-0.670059
-0.613002
-0.541028
-0.457739
-0.368707
-0.272187
-0.169842
-0.061512
0.0528592
0.163795
0.25708
0.32841
0.380125
0.407636
0.398094
0.351823
0.251693
0.164761
0.149042
-0.700106
-0.682903
-0.625809
-0.554054
-0.470985
-0.382347
-0.286337
-0.18479
-0.0776371
0.0349383
0.143382
0.2323
0.296196
0.332622
0.325619
0.289048
0.184405
0.0613598
-0.0469404
-0.0693715
-0.713104
-0.696266
-0.639133
-0.56765
-0.484848
-0.396616
-0.301178
-0.200528
-0.0948032
0.0154044
0.120324
0.203607
0.261186
0.274287
0.23268
0.144032
-0.017145
-0.172569
-0.301605
-0.326407
-0.727163
-0.710576
-0.653269
-0.582037
-0.499508
-0.411647
-0.316809
-0.21717
-0.113052
-0.00551462
0.09532
0.172762
0.218695
0.204439
0.137489
-0.0179025
-0.230431
-0.453047
-0.638626
-0.685085
-0.742329
-0.725867
-0.66826
-0.59722
-0.514931
-0.427407
-0.333192
-0.234616
-0.132218
-0.0277506
0.0679351
0.140415
0.171151
0.122913
0.0206676
-0.185569
-0.438862
-0.75014
-1.0897
-1.23089
-0.758662
-0.742261
-0.684188
-0.613264
-0.531149
-0.443935
-0.350355
-0.252924
-0.152417
-0.0512545
0.0383219
0.104699
0.119434
0.033928
-0.121199
-0.355426
-0.620161
-0.99947
-1.62486
-2.2166
-0.776153
-0.75976
-0.701102
-0.630199
-0.548148
-0.461197
-0.368244
-0.271978
-0.173332
-0.0754098
0.00823345
0.0674032
0.0645047
-0.047763
-0.260625
-0.534218
-0.774708
-1.05387
-1.67946
-3.32939
-0.79483
-0.778412
-0.719064
-0.648134
-0.566056
-0.479342
-0.387009
-0.291927
-0.195323
-0.100976
-0.0234761
0.0266677
0.00502654
-0.11555
-0.371811
-0.658911
-0.845595
-0.919881
-0.953932
-1.37686
-0.814641
-0.798186
-0.73823
-0.66732
-0.585196
-0.498771
-0.407188
-0.313539
-0.219312
-0.128784
-0.0567241
-0.0168352
-0.0603966
-0.16793
-0.430093
-0.688679
-0.839652
-0.870651
-0.828114
-0.877163
-0.835564
-0.818941
-0.758594
-0.687803
-0.605601
-0.519566
-0.428844
-0.336695
-0.24507
-0.158993
-0.0923071
-0.0615019
-0.118652
-0.223747
-0.478457
-0.687681
-0.800287
-0.82723
-0.865986
-0.882175
-0.857405
-0.840417
-0.780088
-0.709566
-0.627191
-0.541651
-0.451886
-0.361444
-0.272853
-0.191704
-0.12945
-0.108663
-0.173903
-0.288332
-0.517703
-0.688506
-0.780912
-0.755817
-0.783662
-0.783958
-0.879857
-0.862574
-0.802645
-0.732486
-0.649778
-0.564906
-0.476236
-0.387585
-0.302133
-0.225888
-0.168155
-0.156969
-0.223487
-0.357642
-0.563394
-0.696484
-0.765736
-0.781014
-0.780996
-0.789563
-0.902436
-0.885046
-0.826201
-0.756239
-0.673082
-0.589051
-0.501464
-0.414497
-0.332141
-0.260711
-0.207356
-0.20937
-0.272853
-0.431652
-0.611409
-0.72229
-0.746883
-0.798327
-0.772576
-0.78118
-0.924922
-0.907699
-0.850149
-0.780224
-0.696757
-0.613684
-0.527209
-0.442028
-0.362948
-0.296187
-0.246219
-0.259157
-0.327384
-0.495618
-0.646608
-0.758844
-0.755989
-0.787862
-0.768391
-0.769406
-0.94674
-0.929982
-0.87349
-0.803742
-0.720446
-0.638448
-0.552897
-0.469228
-0.393288
-0.330698
-0.284208
-0.30427
-0.391812
-0.564799
-0.673169
-0.756027
-0.772781
-0.750587
-0.766747
-0.764672
-0.967393
-0.95136
-0.895695
-0.826072
-0.743781
-0.662506
-0.577624
-0.495266
-0.42192
-0.363891
-0.319104
-0.338176
-0.465028
-0.653521
-0.682683
-0.62119
-0.669589
-0.690205
-0.721635
-0.72791
-0.985788
-0.970715
-0.916006
-0.846616
-0.766208
-0.685138
-0.600704
-0.519636
-0.447444
-0.393414
-0.352761
-0.35872
-0.527544
-0.755716
-0.786536
-0.696122
-0.740961
-0.754948
-0.780672
-0.77783
-1.00122
-0.987419
-0.93414
-0.865241
-0.786516
-0.705112
-0.621055
-0.54125
-0.468524
-0.415941
-0.386243
-0.368818
-0.583074
-0.904421
-1.17838
-1.27962
-1.30623
-1.26611
-1.22709
-1.19202
-1.01241
-1.00013
-0.949077
-0.881124
-0.803169
-0.721427
-0.638023
-0.558767
-0.484821
-0.429019
-0.412607
-0.374865
-0.620409
-1.03213
-1.60836
-2.03182
-2.14003
-2.09182
-1.93831
-1.83655
-1.01863
-1.00803
-0.959709
-0.892579
-0.814951
-0.733591
-0.650375
-0.570536
-0.495106
-0.432111
-0.417127
-0.374043
-0.591067
-0.976734
-1.48517
-1.87191
-1.90701
-1.81223
-1.67436
-1.59338
-1.01853
-1.00956
-0.964535
-0.898611
-0.821378
-0.74052
-0.656977
-0.574956
-0.496698
-0.424742
-0.395429
-0.338484
-0.451832
-0.529373
-0.607915
-0.637226
-0.56331
-0.468964
-0.381429
-0.290662
-1.01058
-1.00299
-0.962063
-0.897575
-0.821064
-0.740797
-0.656881
-0.57215
-0.489558
-0.403186
-0.348343
-0.248006
-0.168952
0.06973
0.341265
0.563446
0.751796
0.89128
0.968854
0.997727
-0.993231
-0.986581
-0.951393
-0.889616
-0.814347
-0.734219
-0.650125
-0.562943
-0.474983
-0.371429
-0.281574
-0.160849
0.0898619
0.477278
0.911282
1.2701
1.5303
1.68603
1.75324
1.77079
-0.964027
-0.957964
-0.930174
-0.872463
-0.800071
-0.721318
-0.638077
-0.54909
-0.456167
-0.342777
-0.222187
-0.12318
0.159387
0.561054
0.996958
1.36021
1.63241
1.7921
1.85872
1.87492
-0.923409
-0.919353
-0.898987
-0.84694
-0.77839
-0.702785
-0.622668
-0.534909
-0.439492
-0.33014
-0.193431
-0.115784
0.108738
0.449694
0.811748
1.11819
1.3618
1.51188
1.58084
1.60198
-0.875341
-0.874701
-0.859957
-0.814053
-0.75098
-0.680522
-0.60532
-0.524156
-0.431298
-0.331401
-0.197144
-0.0953404
0.0605077
0.292964
0.564477
0.790968
0.972273
1.09492
1.15672
1.17915
-0.815546
-0.817496
-0.805426
-0.768
-0.714471
-0.653558
-0.588298
-0.519993
-0.439786
-0.347103
-0.215254
-0.0913843
0.00765263
0.171075
0.374656
0.534053
0.658044
0.748883
0.792717
0.807673
-0.735506
-0.737428
-0.729595
-0.704514
-0.665533
-0.619925
-0.570295
-0.517435
-0.452819
-0.372145
-0.250806
-0.128559
-0.0551321
0.076403
0.230343
0.342431
0.434586
0.499042
0.527668
0.534437
-0.656449
-0.656591
-0.651709
-0.638096
-0.61358
-0.583656
-0.550399
-0.512319
-0.464849
-0.413518
-0.311279
-0.202445
-0.118344
-0.0194419
0.0894304
0.171395
0.240644
0.286307
0.306823
0.307795
-0.596179
-0.596097
-0.592997
-0.58613
-0.573241
-0.556968
-0.539791
-0.520487
-0.502061
-0.47863
-0.412991
-0.316115
-0.214023
-0.134646
-0.0499167
0.0150937
0.0725584
0.114127
0.134573
0.14041
-0.559779
-0.55969
-0.55884
-0.556789
-0.552409
-0.547754
-0.546369
-0.550229
-0.569607
-0.585806
-0.588042
-0.498326
-0.374198
-0.278232
-0.187349
-0.119585
-0.0634333
-0.0213046
-0.0075878
-0.00154557
-0.539648
-0.540284
-0.541219
-0.542472
-0.544832
-0.550507
-0.56463
-0.594305
-0.656084
-0.736246
-0.83795
-0.755731
-0.598656
-0.483679
-0.346183
-0.242135
-0.170812
-0.142274
-0.132361
-0.131589
-0.520707
-0.522207
-0.524643
-0.529256
-0.536495
-0.550887
-0.579412
-0.633228
-0.741239
-0.915786
-1.12289
-1.0391
-0.85535
-0.672438
-0.50053
-0.376817
-0.30657
-0.272798
-0.260743
-0.26368
-0.490123
-0.492188
-0.495133
-0.501977
-0.51414
-0.53466
-0.573895
-0.633946
-0.773215
-0.983813
-1.31509
-1.1991
-0.992522
-0.773961
-0.591623
-0.481748
-0.419479
-0.391271
-0.384193
-0.385369
-0.441309
-0.443294
-0.446373
-0.451877
-0.463699
-0.484968
-0.523675
-0.594917
-0.732694
-0.958434
-1.20714
-1.11949
-0.913461
-0.719076
-0.596936
-0.527022
-0.477929
-0.47223
-0.468449
-0.467949
-0.374353
-0.376024
-0.378975
-0.383347
-0.392201
-0.409724
-0.442597
-0.503702
-0.617745
-0.796136
-0.95299
-0.856556
-0.701016
-0.611312
-0.554356
-0.506874
-0.497024
-0.494838
-0.492562
-0.490995
-0.294551
-0.295677
-0.297706
-0.301127
-0.307055
-0.318802
-0.341
-0.38304
-0.459804
-0.574624
-0.668558
-0.564264
-0.478454
-0.451131
-0.449521
-0.448542
-0.452938
-0.453219
-0.452763
-0.451044
-0.212109
-0.212672
-0.213643
-0.215074
-0.217937
-0.224144
-0.235787
-0.258115
-0.298283
-0.356665
-0.402149
-0.327982
-0.302916
-0.301798
-0.311212
-0.347748
-0.357875
-0.363975
-0.365392
-0.364834
-0.137294
-0.137449
-0.137709
-0.137734
-0.138061
-0.139559
-0.142641
-0.149165
-0.159992
-0.169644
-0.161431
-0.165096
-0.182944
-0.19999
-0.225229
-0.253669
-0.261645
-0.26778
-0.270377
-0.271139
-0.0763021
-0.0762192
-0.0761166
-0.0754701
-0.0744558
-0.0732267
-0.0712457
-0.0686072
-0.0637912
-0.047313
-0.0312593
-0.0585831
-0.0969638
-0.126384
-0.155336
-0.174039
-0.182297
-0.187688
-0.190059
-0.190799
-0.030824
-0.0306553
-0.0304936
-0.0298381
-0.0286507
-0.0267383
-0.0231305
-0.0174515
-0.00869588
0.00723093
0.0235596
-0.00907689
-0.0467323
-0.0743867
-0.0998106
-0.11396
-0.121249
-0.125673
-0.127585
-0.128241
0.000190303
0.000355458
0.000402156
0.000677139
0.00143038
0.00281276
0.00592595
0.0111582
0.0190964
0.0302949
0.0398772
0.0113049
-0.018824
-0.040944
-0.0606502
-0.0714784
-0.0776923
-0.0807147
-0.0822673
-0.0828494
0.0191442
0.019274
0.0191868
0.0189986
0.0192037
0.0198083
0.0216675
0.0250896
0.0304958
0.0372129
0.0410199
0.0199921
-0.0030746
-0.0201154
-0.0342341
-0.0420012
-0.0479074
-0.0502778
-0.0513799
-0.0517505
0.0289218
0.029007
0.0288468
0.0283966
0.0282078
0.0282411
0.0290114
0.0306527
0.033428
0.0364279
0.0362366
0.0216698
0.00474354
-0.00782469
-0.0178461
-0.0237962
-0.027367
-0.0289531
-0.0297462
-0.0301032
0.0324981
0.0325459
0.0323687
0.03184
0.0314386
0.0311375
0.0312202
0.0316767
0.0325708
0.0330048
0.030547
0.0202458
0.00816971
-0.000713583
-0.00755054
-0.0116272
-0.0139987
-0.0152409
-0.0158764
-0.0160795
0.0322079
0.0322336
0.0320578
0.0315316
0.031009
0.0304993
0.0301575
0.029943
0.0297915
0.0288858
0.0256024
0.0180231
0.00951969
0.00328022
-0.00143076
-0.00433038
-0.00607439
-0.00699135
-0.00743088
-0.00757813
0.0295551
0.02957
0.0293956
0.0288899
0.0283049
0.0276682
0.0270526
0.0264544
0.0257748
0.024371
0.0211736
0.0155963
0.00965631
0.00525734
0.00195676
-0.000147071
-0.0014456
-0.0021412
-0.00246173
-0.00256148
0.0254065
0.0254172
0.0252531
0.0247991
0.0242268
0.0235709
0.0228446
0.0220729
0.02116
0.0196804
0.0169636
0.0129356
0.0088384
0.0057684
0.00347075
0.00196496
0.00101584
0.00049794
0.000267667
0.000199881
0.020357
0.0203651
0.0202295
0.0198604
0.0193707
0.0188
0.0181172
0.0173664
0.016436
0.0150885
0.012939
0.0101027
0.00734273
0.00526308
0.00370829
0.00267074
0.0020094
0.0016455
0.00149045
0.00144472
0.0148283
0.0148373
0.0147406
0.0144694
0.0141037
0.0136706
0.0131377
0.0125462
0.0117745
0.0107125
0.00914204
0.00723355
0.00545333
0.00413012
0.00314687
0.00248
0.00205047
0.00181157
0.00171402
0.00168246
0.0090228
0.00903256
0.00898296
0.00881238
0.00858021
0.0082958
0.0079592
0.00759839
0.00709037
0.00643429
0.00547762
0.00436994
0.0033446
0.00258228
0.00202419
0.00164827
0.00140903
0.00128058
0.00123737
0.00122281
0.00307757
0.00308466
0.00308333
0.00300692
0.00291414
0.00279775
0.00266956
0.002567
0.00236113
0.00216367
0.00183017
0.0014709
0.00111942
0.000851185
0.000624949
0.000477646
0.000392195
0.000355233
0.000361274
0.000368028
-1.57819
-0.675852
-0.400519
-0.106251
0.0935904
0.267119
0.414036
0.563242
0.721836
0.798874
-0.544213
-0.108402
-0.075989
0.123118
0.263372
0.388845
0.498389
0.594435
0.627591
0.582372
-0.128995
0.101408
0.149645
0.291707
0.389405
0.478516
0.552227
0.607041
0.612691
0.624176
0.122395
0.27953
0.316786
0.429029
0.490697
0.55479
0.603894
0.638479
0.649122
0.671913
0.317282
0.425504
0.454983
0.532929
0.577848
0.623545
0.658228
0.683731
0.694574
0.725333
0.46696
0.542028
0.572503
0.620942
0.658469
0.690917
0.716821
0.738098
0.753062
0.780757
0.592098
0.645823
0.672401
0.70288
0.732292
0.757304
0.778217
0.797881
0.813248
0.839408
0.699334
0.738471
0.760346
0.782124
0.804165
0.824411
0.842317
0.860774
0.875854
0.899402
0.795919
0.825344
0.842902
0.858855
0.87575
0.89233
0.908187
0.925389
0.938989
0.961283
0.885517
0.906626
0.921992
0.935587
0.949567
0.963663
0.977269
0.99192
1.00345
1.02313
0.972272
0.98824
1.00232
1.01441
1.02655
1.03827
1.04943
1.06114
1.06882
1.08564
1.05802
1.07102
1.08487
1.0966
1.1072
1.11696
1.12574
1.13402
1.1376
1.14889
1.14753
1.15852
1.17201
1.18123
1.18867
1.19585
1.20308
1.20971
1.21069
1.2181
1.24605
1.25079
1.25882
1.26331
1.26658
1.27105
1.27705
1.28482
1.28864
1.29853
1.3594
1.34568
1.33823
1.33257
1.32987
1.33127
1.3378
1.35024
1.36496
1.39461
1.48017
1.42453
1.39364
1.37657
1.36844
1.36846
1.3771
1.39653
1.42861
1.49776
)
;

boundaryField
{
    wall-4
    {
        type            zeroGradient;
    }
    pressure-outlet-7
    {
        type            fixedValue;
        value           uniform 0;
    }
    velocity-inlet-6
    {
        type            zeroGradient;
    }
    velocity-inlet-5
    {
        type            zeroGradient;
    }
    frontAndBackPlanes
    {
        type            empty;
    }
}


// ************************************************************************* //
