/*--------------------------------*- C++ -*----------------------------------*\
| =========                 |                                                 |
| \\      /  F ield         | OpenFOAM: The Open Source CFD Toolbox           |
|  \\    /   O peration     | Version:  v2012                                 |
|   \\  /    A nd           | Website:  www.openfoam.com                      |
|    \\/     M anipulation  |                                                 |
\*---------------------------------------------------------------------------*/
FoamFile
{
    version     2.0;
    format      ascii;
    class       surfaceScalarField;
    location    "20";
    object      phi;
}
// * * * * * * * * * * * * * * * * * * * * * * * * * * * * * * * * * * * * * //

dimensions      [0 3 -1 0 0 0 0];
oriented        oriented;


internalField   nonuniform List<scalar> 
4262
(
0.107144
0.470844
0.0956103
0.705119
0.0695145
0.858399
0.0476738
1.0206
0.0314488
1.21474
0.0202121
1.44946
0.0126103
1.73347
0.00724092
2.07641
0.00331516
2.48917
-0.000178607
2.98579
-0.00369685
2.98581
-0.00759491
2.48914
-0.0129685
2.07641
-0.02054
1.73344
-0.0317203
1.4494
-0.0479079
1.2147
-0.0696886
1.02054
-0.0957046
0.858319
-0.107206
0.705087
0.470783
0.112695
0.358149
0.135034
0.68278
0.119968
0.873466
0.0972486
1.04332
0.0741075
1.23788
0.0526245
1.47094
0.0343522
1.75174
0.020113
2.09064
0.00882274
2.50046
-0.000749082
2.99536
-0.0103734
2.99543
-0.0215677
2.50034
-0.0356364
2.09048
-0.0537331
1.75153
-0.0750422
1.47071
-0.0979859
1.23765
-0.120578
1.04314
-0.135475
0.873217
-0.112915
0.682526
0.357868
0.0917765
0.266372
0.124391
0.650166
0.120277
0.877579
0.10349
1.06011
0.0844024
1.25697
0.0653236
1.49002
0.0469817
1.77008
0.0298837
2.10774
0.0142195
2.51612
-0.0013781
3.01096
-0.0168523
3.01091
-0.0323063
2.51579
-0.0490907
2.10726
-0.0670211
1.76946
-0.0857197
1.48941
-0.104511
1.25644
-0.121006
1.05963
-0.124988
0.877198
-0.0920723
0.64961
0.265796
0.0635949
0.202778
0.104233
0.609528
0.106053
0.875759
0.0946973
1.07147
0.0801888
1.27148
0.0654446
1.50476
0.0495333
1.78599
0.0329589
2.12432
0.0161042
2.53298
-0.00193288
3.02899
-0.0197203
3.0287
-0.0360965
2.53217
-0.0521382
2.1233
-0.0677087
1.78503
-0.0822328
1.50393
-0.0965265
1.27073
-0.107615
1.07072
-0.105287
0.874871
-0.0640386
0.608361
0.201757
0.0367553
0.166022
0.0790378
0.567245
0.0893092
0.865487
0.0828822
1.07789
0.0711741
1.28319
0.0591664
1.51677
0.0463475
1.79881
0.0318974
2.13877
0.0156349
2.54924
-0.00272318
3.04735
-0.0208211
3.04679
-0.0365616
2.54791
-0.0505292
2.13727
-0.0628463
1.79735
-0.0742015
1.51529
-0.0853211
1.28185
-0.0911591
1.07656
-0.0802644
0.863977
-0.0372057
0.565303
0.164551
0.0185209
0.147501
0.0542028
0.531564
0.0683772
0.851313
0.0666186
1.07965
0.0590911
1.29071
0.049347
1.52651
0.0388298
1.80933
0.0271577
2.15044
0.0132024
2.5632
-0.00341254
3.06397
-0.019811
3.06319
-0.0332653
2.56136
-0.0441118
2.14812
-0.0536819
1.80692
-0.0627255
1.52433
-0.0695847
1.28871
-0.0706449
1.07762
-0.0556045
0.848936
-0.0189828
0.528681
0.145569
0.00961071
0.137891
0.0393925
0.501782
0.0540286
0.836677
0.0538422
1.07984
0.0482177
1.29634
0.0401477
1.53458
0.0311109
1.81836
0.0206179
2.16093
0.00890644
2.57491
-0.0043045
3.07718
-0.0171781
3.07607
-0.0281426
2.57233
-0.0375855
2.15756
-0.0457329
1.81507
-0.0529973
1.53159
-0.0577796
1.29349
-0.0571174
1.07696
-0.041306
0.833125
-0.0102153
0.497591
0.135353
0.00538323
0.132507
0.0295284
0.477637
0.0444368
0.821768
0.0453598
1.07892
0.0405256
1.30117
0.0332563
1.54185
0.0248248
1.8268
0.0155602
2.1702
0.00560082
2.58487
-0.00544907
3.08823
-0.0160015
3.08662
-0.0249728
2.5813
-0.0330864
2.16568
-0.0402791
1.82226
-0.0464014
1.53772
-0.0501569
1.29725
-0.0480606
1.07486
-0.0316543
0.816719
-0.00608741
0.472024
0.129266
0.00247601
0.130031
0.0188691
0.461244
0.0321891
0.808448
0.0344531
1.07665
0.0310953
1.30453
0.0256628
1.54729
0.0191637
1.83329
0.011637
2.17772
0.00304193
2.59346
-0.00699745
3.09827
-0.0165087
3.09613
-0.0238949
2.58868
-0.0301637
2.17194
-0.0348485
1.82694
-0.0387956
1.54166
-0.0406178
1.29907
-0.0366743
1.07092
-0.0214167
0.801461
-0.00334586
0.453953
0.12592
0.000230453
0.129801
0.00871369
0.45276
0.0188333
0.798329
0.0219313
1.07355
0.0203758
1.30609
0.0168756
1.55079
0.012798
1.83737
0.00723811
2.18328
-1.24311e-05
2.60071
-0.00896884
3.10722
-0.0171912
3.10435
-0.0224642
2.59396
-0.0255854
2.17507
-0.0280094
1.82937
-0.0295387
1.54319
-0.0291144
1.29865
-0.023963
1.06576
-0.011757
0.789255
-0.00130469
0.4435
0.124615
-0.000604522
0.130405
0.0028457
0.44931
0.00939136
0.791783
0.012299
1.07065
0.0119258
1.30646
0.00974742
1.55296
0.00658798
1.84053
0.00234997
2.18752
-0.00340108
2.60646
-0.0106355
3.11446
-0.0169896
3.11071
-0.0208029
2.59777
-0.0230005
2.17726
-0.0239257
1.83029
-0.023324
1.54259
-0.0213389
1.29666
-0.0158817
1.06031
-0.00657846
0.779952
-0.00069599
0.437618
0.123919
-0.000617054
0.131022
0.00032893
0.448364
0.00457354
0.787538
0.00724587
1.06797
0.00748739
1.30622
0.00623392
1.55422
0.00313934
1.84363
-0.00138234
2.19204
-0.00723685
2.61232
-0.0137957
3.12102
-0.019161
3.11607
-0.0225571
2.60117
-0.0239915
2.1787
-0.0232807
1.82958
-0.021582
1.54089
-0.0183769
1.29346
-0.0128211
1.05475
-0.00528277
0.772413
-0.0010279
0.433363
0.122891
-0.000904555
0.131927
-0.00127498
0.448735
0.0013794
0.784884
0.00351884
1.06583
0.00439076
1.30535
0.00372493
1.55488
0.000989784
1.84636
-0.00373912
2.19677
-0.0101025
2.61868
-0.0172369
3.12815
-0.0229472
3.12178
-0.0260567
2.60427
-0.0262956
2.17894
-0.0248602
1.82815
-0.0223778
1.53841
-0.0178653
1.28894
-0.0116656
1.04855
-0.00494949
0.765697
-0.00127427
0.429688
0.121617
-0.00149473
0.133422
-0.00305189
0.450292
-0.00189957
0.783732
0.000523988
1.06341
0.00180553
1.30406
0.000949792
1.55574
-0.00211949
1.84943
-0.00726427
2.20192
-0.0141186
2.62554
-0.0216678
3.1357
-0.0275113
3.12763
-0.0302088
2.60697
-0.0301305
2.17886
-0.0279985
1.82602
-0.0235054
1.53392
-0.0173154
1.28275
-0.0103515
1.04159
-0.00426592
0.759612
-0.00112919
0.426551
0.120488
-0.00200619
0.135428
-0.00475866
0.453044
-0.00538636
0.784359
-0.00363115
1.06166
-0.00227869
1.30271
-0.00298016
1.55644
-0.00620432
1.85265
-0.011762
2.20747
-0.019046
2.63282
-0.0267461
3.1434
-0.0322901
3.13317
-0.0345582
2.60924
-0.0340808
2.17838
-0.0313133
1.82325
-0.02582
1.52842
-0.018641
1.27558
-0.0109132
1.03386
-0.00475414
0.753453
-0.00138018
0.423177
0.119108
-0.002247
0.137675
-0.00611739
0.456915
-0.00779067
0.786033
-0.00699567
1.06086
-0.00636651
1.30208
-0.00797982
1.55805
-0.0123111
1.85699
-0.0186907
2.21385
-0.0263719
2.6405
-0.0339602
3.15099
-0.0387367
3.13795
-0.0400604
2.61056
-0.0384021
2.17672
-0.0343466
1.81919
-0.0277604
1.52184
-0.0197852
1.2676
-0.0118224
1.0259
-0.00572414
0.747354
-0.00184407
0.419297
0.117264
-0.00287013
0.140545
-0.00789183
0.461936
-0.0109859
0.789127
-0.0118597
1.06173
-0.0123613
1.30258
-0.0146901
1.56038
-0.019602
1.8619
-0.026664
2.22092
-0.0348435
2.64868
-0.0423719
3.15852
-0.0463023
3.14188
-0.0462654
2.61053
-0.0433608
2.17382
-0.0381269
1.81396
-0.030938
1.51465
-0.0226371
1.2593
-0.014346
1.01761
-0.00748482
0.740493
-0.00247479
0.414287
0.114789
-0.0034199
0.143965
-0.00947167
0.467988
-0.0141595
0.793815
-0.0167972
1.06437
-0.0194619
1.30525
-0.0237796
1.5647
-0.0301169
1.86823
-0.0379947
2.22879
-0.0463476
2.65703
-0.0533038
3.16547
-0.0558032
3.14438
-0.0538942
2.60862
-0.0491624
2.16909
-0.0421295
1.80693
-0.0336041
1.50612
-0.0244505
1.25015
-0.0158332
1.00899
-0.00864841
0.733308
-0.00293965
0.408578
0.111849
-0.00474006
0.148705
-0.013197
0.476445
-0.0204462
0.801064
-0.0251974
1.06912
-0.0295132
1.30957
-0.0352635
1.57045
-0.0427847
1.87576
-0.0514643
2.23747
-0.05996
2.66553
-0.0659513
3.17146
-0.0664477
3.14487
-0.062161
2.60433
-0.0552178
2.16214
-0.0466588
1.79837
-0.0374716
1.49694
-0.0282512
1.24093
-0.0192665
1
-0.010804
0.724846
-0.00361804
0.401392
0.108231
-0.00574348
0.154449
-0.0158471
0.486549
-0.0251311
0.810348
-0.0327378
1.07673
-0.040389
1.31722
-0.0490589
1.57912
-0.0588087
1.88551
-0.0689867
2.24765
-0.0779225
2.67446
-0.0828297
3.17637
-0.0810016
3.14304
-0.0742321
2.59756
-0.0649639
2.15287
-0.054433
1.78784
-0.0434004
1.4859
-0.0324992
1.23002
-0.0222105
0.989715
-0.0126565
0.715292
-0.00429571
0.393032
0.103935
-0.00816352
0.162612
-0.0223581
0.500743
-0.0350498
0.823039
-0.0451401
1.08682
-0.0548414
1.32692
-0.0659305
1.59021
-0.0780514
1.89763
-0.0898334
2.25943
-0.0990697
2.6837
-0.102582
3.17988
-0.0978953
3.13836
-0.0879908
2.58766
-0.0757489
2.14063
-0.0629181
1.775
-0.0507067
1.47369
-0.0393277
1.21865
-0.0280124
0.9784
-0.0161418
0.703421
-0.00538361
0.382273
0.0985519
-0.0100536
0.172666
-0.0270382
0.517728
-0.0432274
0.839229
-0.0574288
1.10102
-0.0719101
1.3414
-0.0871021
1.6054
-0.102299
1.91282
-0.116084
2.27322
-0.125795
2.69341
-0.127725
3.18181
-0.119954
3.13059
-0.106887
2.57459
-0.0918376
2.12558
-0.0764986
1.75967
-0.0615045
1.4587
-0.0471048
1.20425
-0.0329838
0.964279
-0.0189229
0.68936
-0.00632675
0.369677
0.0922251
-0.0149965
0.187662
-0.0386661
0.541398
-0.0595539
0.860116
-0.0775666
1.11903
-0.0955481
1.35938
-0.114373
1.62423
-0.132926
1.93138
-0.148599
2.28889
-0.15822
2.70303
-0.15793
3.18152
-0.146452
3.11911
-0.129371
2.55751
-0.110248
2.10646
-0.0913002
1.74072
-0.0737882
1.44119
-0.057624
1.18808
-0.0414236
0.948078
-0.023919
0.671856
-0.00777327
0.353531
0.0844518
-0.0191372
0.206799
-0.0497292
0.571989
-0.0782809
0.888668
-0.102456
1.14321
-0.126979
1.3839
-0.151143
1.64839
-0.173047
1.95328
-0.189891
2.30574
-0.198544
2.71169
-0.194968
3.17795
-0.17864
3.10278
-0.156991
2.53586
-0.134208
2.08368
-0.112132
1.71864
-0.0912618
1.42032
-0.0711236
1.16794
-0.0502029
0.927158
-0.0282807
0.649934
-0.00890688
0.334158
0.075545
-0.0334801
0.240279
-0.075404
0.613913
-0.110757
0.924021
-0.141323
1.17377
-0.172105
1.41469
-0.20011
1.6764
-0.223674
1.97685
-0.24021
2.32227
-0.246313
2.71779
-0.238031
3.16966
-0.216357
3.08111
-0.189838
2.50934
-0.162205
2.05604
-0.135507
1.69194
-0.11054
1.39535
-0.0866907
1.14409
-0.0621681
0.902635
-0.0357329
0.623498
-0.0109146
0.309339
0.0646304
-0.0466064
0.286886
-0.111364
0.678671
-0.161281
0.973939
-0.20044
1.21293
-0.236407
1.45065
-0.266268
1.70626
-0.289445
2.00002
-0.3032
2.33603
-0.304312
2.7189
-0.28924
3.15459
-0.260621
3.05249
-0.228159
2.47688
-0.195819
2.02371
-0.165291
1.66142
-0.13697
1.36703
-0.109301
1.11642
-0.0784995
0.871834
-0.0420123
0.587011
-0.011395
0.278722
0.0532354
-0.0307733
0.317659
-0.0846482
0.732545
-0.132842
1.02213
-0.176799
1.25689
-0.217958
1.49181
-0.256669
1.74497
-0.291695
2.03505
-0.320046
2.36438
-0.337607
2.73646
-0.337599
3.15458
-0.316976
3.03187
-0.284669
2.44457
-0.245952
1.98499
-0.204221
1.61968
-0.161367
1.32417
-0.117902
1.07296
-0.0731386
0.827071
-0.0324271
0.5463
-0.00688172
0.253177
0.0463536
-0.00736768
0.325027
-0.0344902
0.759668
-0.0706564
1.0583
-0.10812
1.29435
-0.145146
1.52884
-0.18022
1.78004
-0.211615
2.06644
-0.236559
2.38932
-0.250728
2.75063
-0.247999
3.15185
-0.225456
3.00932
-0.191041
2.41016
-0.151778
1.94573
-0.111937
1.57984
-0.073395
1.28563
-0.037929
1.03749
-0.00953396
0.798676
0.00606307
0.530703
0.00565242
0.253587
0.0520061
0.00392988
0.321097
-0.0136864
0.777284
-0.0402665
1.08488
-0.0701336
1.32422
-0.10046
1.55916
-0.130411
1.80999
-0.157933
2.09397
-0.179887
2.41128
-0.192017
2.76276
-0.188135
3.14797
-0.165898
2.98708
-0.135111
2.37937
-0.101116
1.91173
-0.0672376
1.54597
-0.0360568
1.25445
-0.00942354
1.01086
0.0098509
0.779401
0.015097
0.525457
0.00774373
0.260941
0.0597498
0.00459606
0.316501
-0.00511021
0.78699
-0.0250751
1.10484
-0.049496
1.34864
-0.0742049
1.58387
-0.0995587
1.83535
-0.123332
2.11774
-0.14242
2.43036
-0.152635
2.77298
-0.148215
3.14355
-0.128907
2.96778
-0.102834
2.3533
-0.0749283
1.88382
-0.0477816
1.51882
-0.0229458
1.22962
-0.00162964
0.989544
0.0121031
0.765669
0.0144324
0.523127
0.00627179
0.269101
0.0660216
0.00662775
0.309873
-0.000173419
0.793792
-0.0178836
1.12255
-0.0381917
1.36895
-0.0591727
1.60485
-0.0810986
1.85727
-0.101807
2.13845
-0.118711
2.44727
-0.128212
2.78248
-0.125982
3.14132
-0.110041
2.95184
-0.087191
2.33045
-0.0631428
1.85978
-0.0400512
1.49573
-0.0188465
1.20841
-0.00158423
0.972282
0.00862389
0.75546
0.0093059
0.522445
0.0036194
0.274788
0.069641
0.00633002
0.303543
0.0015788
0.798543
-0.0137051
1.13784
-0.0319339
1.38718
-0.0508542
1.62377
-0.0703692
1.87679
-0.0890147
2.15709
-0.104706
2.46296
-0.114173
2.79195
-0.112284
3.13943
-0.0979284
2.93748
-0.0790537
2.31157
-0.0587312
1.83945
-0.0386438
1.47564
-0.0210876
1.19085
-0.00736791
0.958562
0.0014825
0.74661
0.00356163
0.520366
0.00136584
0.276983
0.0710068
0.00451222
0.299031
0.00139327
0.801662
-0.0119643
1.1512
-0.02873
1.40395
-0.0465275
1.64157
-0.0645637
1.89482
-0.0819461
2.17448
-0.0969479
2.47796
-0.106398
2.8014
-0.106032
3.13907
-0.0944549
2.9259
-0.0766614
2.29378
-0.0576514
1.82044
-0.0404521
1.45844
-0.0250734
1.17548
-0.0129194
0.946408
-0.00588002
0.739571
-0.00278353
0.51727
-0.000733245
0.274933
0.0702736
0.00274218
0.296289
0.000246452
0.804158
-0.011739
1.16318
-0.0274351
1.41964
-0.0443912
1.65853
-0.061584
1.91202
-0.0782472
2.19114
-0.0928951
2.49261
-0.102583
2.81108
-0.103348
3.13983
-0.0922606
2.91482
-0.0761591
2.27768
-0.0596012
1.80389
-0.0437568
1.4426
-0.0300741
1.16179
-0.0192808
0.935615
-0.0110932
0.731383
-0.0061609
0.512337
-0.00192286
0.270695
0.0683507
0.000220474
0.296068
-0.00223643
0.806614
-0.0128365
1.17378
-0.0272617
1.43407
-0.0433655
1.67463
-0.0600672
1.92872
-0.0764984
2.20757
-0.0913089
2.50742
-0.102091
2.82187
-0.104864
3.1426
-0.0963961
2.90635
-0.0820309
2.26331
-0.0656347
1.78749
-0.05071
1.42767
-0.0371217
1.1482
-0.0255408
0.924034
-0.0162163
0.722058
-0.00839852
0.50452
-0.00256792
0.264865
0.0657828
-0.000491683
0.29656
-0.00514781
0.811271
-0.0147203
1.18335
-0.0279738
1.44732
-0.0430528
1.68971
-0.0592483
1.94491
-0.0757081
2.22403
-0.0909825
2.52269
-0.102718
2.8336
-0.106631
3.14652
-0.0995477
2.89926
-0.0858642
2.24963
-0.0702431
1.77187
-0.0534951
1.41092
-0.0396
1.13431
-0.0274256
0.91186
-0.0175461
0.712179
-0.00987235
0.496846
-0.00313883
0.258131
0.062644
-0.00263909
0.299199
-0.00764836
0.81628
-0.0168981
1.1926
-0.0289839
1.45941
-0.0431773
1.7039
-0.0588917
1.96063
-0.0754165
2.24056
-0.0913328
2.53861
-0.10466
2.84693
-0.111801
3.15366
-0.107329
2.89479
-0.0940176
2.23632
-0.0772864
1.75514
-0.0627751
1.39641
-0.0480077
1.11954
-0.0353211
0.899173
-0.0236759
0.700534
-0.0118181
0.484988
-0.00369194
0.250005
0.058952
-0.00397155
0.303171
-0.0092423
0.821551
-0.0182342
1.20159
-0.0298952
1.47107
-0.0434763
1.71748
-0.0587419
1.97589
-0.0752871
2.2571
-0.0919157
2.55524
-0.106692
2.8617
-0.11548
3.16245
-0.112136
2.89145
-0.100695
2.22488
-0.085045
1.73949
-0.0667047
1.37807
-0.0507872
1.10362
-0.0362036
0.884589
-0.0234441
0.687774
-0.0131551
0.474699
-0.00415864
0.241008
0.0547934
-0.00439572
0.307566
-0.0103673
0.827522
-0.0192517
1.21048
-0.0306051
1.48242
-0.0437782
1.73066
-0.0586994
1.99081
-0.075238
2.27364
-0.0925236
2.57252
-0.108876
2.87806
-0.120697
3.17427
-0.121689
2.89244
-0.110586
2.21377
-0.0921937
1.7211
-0.0741344
1.36001
-0.0583262
1.08782
-0.044668
0.870931
-0.0307459
0.673852
-0.0154603
0.459413
-0.00471536
0.230263
0.050078
-0.00434133
0.311908
-0.0107237
0.833905
-0.0196391
1.21939
-0.0308123
1.49359
-0.0437704
1.74362
-0.0584776
2.00552
-0.0750099
2.29017
-0.092764
2.59028
-0.110317
2.89561
-0.12412
3.18807
-0.126827
2.89515
-0.118615
2.20556
-0.104536
1.70702
-0.0846273
1.3401
-0.063776
1.06697
-0.044344
0.851499
-0.028552
0.65806
-0.0157571
0.446619
-0.00473929
0.219246
0.0453387
-0.00431716
0.316225
-0.0111002
0.840688
-0.0198497
1.22814
-0.0307112
1.50445
-0.0434429
1.75635
-0.0579577
2.02004
-0.0744547
2.30667
-0.0926175
2.60844
-0.111471
2.91446
-0.128039
3.20464
-0.135016
2.90212
-0.129132
2.19968
-0.111686
1.68957
-0.0912503
1.31967
-0.0696576
1.04537
-0.0525739
0.834415
-0.0360766
0.641563
-0.0178239
0.428366
-0.00468309
0.206105
0.0406556
-0.00428172
0.320507
-0.0110543
0.84746
-0.019628
1.23672
-0.0302054
1.51503
-0.0426646
1.76881
-0.0569807
2.03435
-0.0734681
2.32316
-0.0920287
2.627
-0.112031
2.93447
-0.131066
3.22367
-0.141197
2.91225
-0.136974
2.19545
-0.124112
1.67671
-0.102159
1.29772
-0.0773324
1.02055
-0.0500431
0.807126
-0.0285731
0.620093
-0.0144455
0.414238
-0.00351659
0.195176
0.037139
-0.00429733
0.324804
-0.0111075
0.85427
-0.0193471
1.24496
-0.0295231
1.52521
-0.0416239
1.78091
-0.0556999
2.04843
-0.0721312
2.33959
-0.0910055
2.64587
-0.111906
2.95537
-0.132646
3.24441
-0.145587
2.92519
-0.145441
2.19531
-0.132379
1.66365
-0.111379
1.27672
-0.0841506
0.993318
-0.0576107
0.780586
-0.0326625
0.595145
-0.0123607
0.393936
-0.00276476
0.18558
0.0343743
-0.00419722
0.329001
-0.0107968
0.86087
-0.018783
1.25294
-0.0286062
1.53503
-0.0403029
1.7926
-0.0540676
2.06219
-0.0703598
2.35588
-0.0893642
2.66488
-0.110914
2.97692
-0.133638
3.26714
-0.149952
2.94151
-0.154188
2.19954
-0.147159
1.65662
-0.126373
1.25593
-0.0953676
0.962312
-0.0532697
0.738488
-0.0120459
0.553921
0.0134672
0.368423
0.0184565
0.180591
0.0528308
-0.00405368
0.333055
-0.0105604
0.867377
-0.0182066
1.26059
-0.0276051
1.54443
-0.0388625
1.80386
-0.0522526
2.07558
-0.0682827
2.37191
-0.0873403
2.68394
-0.109686
2.99926
-0.13452
3.29197
-0.154472
2.96146
-0.163548
2.20862
-0.155922
1.64899
-0.137574
1.23758
-0.105286
0.930024
-0.0651887
0.698391
-0.0106237
0.499356
0.025506
0.332294
0.0134491
0.192648
0.0662799
-0.0038091
0.336864
-0.0100283
0.873596
-0.0174041
1.26797
-0.026425
1.55345
-0.0372839
1.81472
-0.0502554
2.08856
-0.0659969
2.38765
-0.0849604
2.7029
-0.107427
3.02173
-0.132618
3.31716
-0.153687
2.98253
-0.166278
2.22121
-0.170618
1.65333
-0.157159
1.22412
-0.1277
0.900565
-0.0696493
0.64034
0.0262327
0.403474
0.136081
0.222446
0.161828
0.1669
0.228108
-0.00362205
0.340486
-0.00980406
0.879778
-0.017048
1.27521
-0.025974
1.56238
-0.0369247
1.82567
-0.0502353
2.10187
-0.066717
2.40413
-0.0870717
2.72326
-0.112271
3.04693
-0.143552
3.34844
-0.17384
3.01282
-0.193199
2.24057
-0.19608
1.65621
-0.18639
1.21443
-0.160705
0.874879
-0.130278
0.609914
-0.149381
0.422577
-0.370588
0.443652
-0.913063
0.709376
0.888312
-1.57327
-0.00339797
0.343884
-0.00927866
0.885659
-0.0163329
1.28226
-0.0250738
1.57112
-0.0358677
1.83646
-0.0491745
2.11517
-0.0659246
2.42088
-0.0870864
2.74442
-0.113872
3.07371
-0.146611
3.38118
-0.177784
3.04399
-0.20393
2.26672
-0.230873
1.68316
-0.24229
1.22585
-0.247903
0.880493
-0.324445
0.686455
-0.682859
0.780992
-1.3845
1.1453
-2.00195
1.32682
1.22293
-2.33657
-0.00322151
0.347105
-0.00885026
0.891287
-0.0156196
1.28903
-0.0240896
1.57959
-0.034692
1.84707
-0.0479768
2.12846
-0.0649578
2.43786
-0.0867487
2.76621
-0.115066
3.10203
-0.152857
3.41897
-0.19443
3.08556
-0.230323
2.30261
-0.255779
1.70861
-0.271763
1.24183
-0.359965
0.968694
-0.736043
1.06253
-1.48415
1.5291
-2.07584
1.73699
-2.3239
1.57488
1.34134
-2.44232
-0.00294395
0.350049
-0.00819654
0.89654
-0.0147046
1.29554
-0.0229311
1.58781
-0.0333139
1.85745
-0.0465284
2.14167
-0.0636194
2.45496
-0.0860249
2.78861
-0.116007
3.13201
-0.156036
3.459
-0.199985
3.12951
-0.240115
2.34274
-0.28878
1.75728
-0.384675
1.33773
-0.694195
1.27821
-1.3941
1.76244
-1.99871
2.13371
-2.24631
1.98459
-2.3642
1.69277
1.4093
-2.43215
-0.00269506
0.352744
-0.00761606
0.901461
-0.0137719
1.3017
-0.0216637
1.59571
-0.0318437
1.86763
-0.0449439
2.15477
-0.0621508
2.47216
-0.085085
2.81155
-0.116185
3.16311
-0.159939
3.50276
-0.213082
3.18265
-0.26934
2.399
-0.325472
1.81341
-0.493164
1.50542
-1.05059
1.83564
-1.74401
2.45586
-2.08666
2.47636
-2.2437
2.14164
-2.33027
1.77934
1.47682
-2.39779
-0.00252658
0.355271
-0.00725024
0.906185
-0.0133854
1.30783
-0.0213034
1.60362
-0.0316628
1.87799
-0.0449338
2.16804
-0.062481
2.48971
-0.0860721
2.83514
-0.118873
3.19591
-0.166082
3.54997
-0.224402
3.24097
-0.280117
2.45471
-0.37475
1.90804
-0.73454
1.86521
-1.44448
2.54558
-1.94295
2.95433
-2.15169
2.68509
-2.26241
2.25236
-2.34133
1.85826
1.54302
-2.40753
-0.00250764
0.357779
-0.00748557
0.911163
-0.0138902
1.31424
-0.0221446
1.61188
-0.0329324
1.88878
-0.0467363
2.18185
-0.0650296
2.508
-0.0897545
2.85986
-0.123976
3.23013
-0.173481
3.59947
-0.23462
3.30211
-0.308466
2.52856
-0.490587
2.09016
-1.00022
2.37485
-1.6345
3.17986
-1.93424
3.25407
-2.08852
2.83937
-2.20816
2.372
-2.30449
1.95458
1.60862
-2.37008
-0.00239933
0.360178
-0.00746816
0.916231
-0.0142638
1.32103
-0.0229768
1.62059
-0.0342136
1.90001
-0.0485938
2.19623
-0.067583
2.52699
-0.0932099
2.88549
-0.129086
3.26601
-0.182632
3.65302
-0.252678
3.37216
-0.341898
2.61778
-0.601893
2.35016
-1.21104
2.98399
-1.72309
3.69191
-1.93966
3.47065
-2.08937
2.98908
-2.22324
2.50587
-2.34331
2.07465
1.67246
-2.40715
-0.00226621
0.362444
-0.00763246
0.921598
-0.0147466
1.32815
-0.0238552
1.6297
-0.0355429
1.9117
-0.0504751
2.21116
-0.0701624
2.54668
-0.0968573
2.91219
-0.134303
3.30346
-0.188943
3.70766
-0.257748
3.44096
-0.380532
2.74056
-0.732489
2.70212
-1.35113
3.60263
-1.73503
4.07581
-1.92154
3.65715
-2.0365
3.10404
-2.13859
2.60797
-2.21563
2.15168
1.66861
-2.21177
-0.0019731
0.364417
-0.00735603
0.926981
-0.0149139
1.3357
-0.0245527
1.63934
-0.0367641
1.92391
-0.0522924
2.22669
-0.0727144
2.5671
-0.100394
2.93987
-0.139098
3.34216
-0.196788
3.76535
-0.279465
3.52364
-0.436529
2.89763
-0.851626
3.11721
-1.41066
4.16167
-1.69252
4.35767
-1.86617
3.8308
-1.97271
3.21058
-1.98454
2.6198
-1.93424
2.10138
1.66145
-1.92708
-0.0017295
0.366147
-0.00732668
0.932578
-0.015121
1.3435
-0.0250816
1.6493
-0.0376169
1.93645
-0.0534104
2.24248
-0.0739687
2.58766
-0.101536
2.96743
-0.140231
3.38086
-0.196614
3.82173
-0.279596
3.60662
-0.46693
3.08496
-0.911659
3.56194
-1.37223
4.62224
-1.5657
4.55114
-1.64884
3.91394
-1.66588
3.22762
-1.53137
2.48529
-1.04386
1.61386
0.617589
-0.00116143
0.367308
-0.0065194
0.937936
-0.0147966
1.35178
-0.0254422
1.65995
-0.0388358
1.94984
-0.055683
2.25933
-0.077771
2.60975
-0.107762
2.99742
-0.150017
3.42311
-0.211845
3.88356
-0.310467
3.70525
-0.538372
3.31286
-1.03821
4.06178
-1.42814
5.01217
-1.5411
4.6641
-1.55195
3.92479
-1.46719
3.14286
-1.23956
2.25766
-0.667918
1.04223
-0.0503295
-0.000715942
0.368024
-0.00589413
0.943114
-0.0143424
1.36022
-0.0254872
1.67109
-0.0395558
1.96391
-0.0574181
2.27719
-0.0808753
2.6332
-0.112489
3.02904
-0.157152
3.46777
-0.223526
3.94993
-0.335149
3.81687
-0.60682
3.58453
-1.13349
4.58844
-1.43871
5.3174
-1.52054
4.74593
-1.51278
3.91703
-1.3209
2.95097
-0.824932
1.76169
-0.130598
0.347891
-0.180928
0.000224053
0.3678
-0.00408968
0.947428
-0.0129092
1.36904
-0.0248033
1.68298
-0.0395854
1.97869
-0.0583219
2.29593
-0.0829786
2.65786
-0.116536
3.06259
-0.165094
3.51633
-0.238137
4.02298
-0.365541
3.94427
-0.687403
3.9064
-1.21299
5.11403
-1.42516
5.52956
-1.46136
4.78214
-1.39455
3.85022
-1.11554
2.67197
-0.367695
1.01384
0.0351424
-0.054946
-0.145785
0.00140159
0.366399
-0.00213653
0.950966
-0.0112037
1.37811
-0.0234104
1.69519
-0.0385777
1.99386
-0.0581526
2.3155
-0.0840922
2.6838
-0.119429
3.09793
-0.168902
3.5658
-0.245766
4.09984
-0.394201
4.09271
-0.754262
4.26646
-1.23603
5.5958
-1.37487
5.6684
-1.398
4.80527
-1.24683
3.69905
-0.768322
2.19346
-0.0951732
0.340695
0.0393346
-0.189454
-0.106451
0.00306827
0.36333
0.00108177
0.952952
-0.00823816
1.38743
-0.020823
1.70778
-0.0363669
2.0094
-0.0564682
2.3356
-0.0829112
2.71024
-0.118247
3.13327
-0.168174
3.61573
-0.25204
4.1837
-0.412812
4.25348
-0.812857
4.6665
-1.23364
6.01658
-1.32762
5.76238
-1.30637
4.78402
-1.04668
3.43936
-0.424095
1.57087
-0.0243596
-0.0590405
0.00937241
-0.223186
-0.0970782
0.00437711
0.358953
0.00340675
0.953923
-0.00463539
1.39547
-0.0167844
1.71992
-0.0322691
2.02489
-0.0527322
2.35607
-0.0796302
2.73714
-0.11616
3.1698
-0.167939
3.66751
-0.255645
4.27141
-0.432493
4.43033
-0.849866
5.08388
-1.16793
6.33465
-1.21333
5.80778
-1.14913
4.71981
-0.860894
3.15113
-0.197496
0.907471
-0.0284096
-0.228127
-0.0113043
-0.240291
-0.108383
0.00677588
0.352177
0.00787044
0.952828
0.0010891
1.40225
-0.0107219
1.73174
-0.02636
2.04053
-0.0468016
2.37651
-0.0731133
2.76345
-0.108788
3.20547
-0.158191
3.71691
-0.244718
4.35794
-0.427697
4.61331
-0.829704
5.48588
-1.07629
6.58124
-1.1262
5.85768
-0.976178
4.5698
-0.570173
2.74513
-0.0337011
0.370999
0.015765
-0.277593
0.0104655
-0.234992
-0.0979171
0.00926055
0.342917
0.0131556
0.948933
0.0081392
1.40727
-0.00179434
1.74167
-0.0176151
2.05635
-0.0371028
2.396
-0.0621135
2.78846
-0.0956346
3.23899
-0.141841
3.76312
-0.226453
4.44255
-0.419586
4.80644
-0.780012
5.84631
-0.946857
6.74808
-0.975462
5.88629
-0.792165
4.3865
-0.304363
2.25733
0.0247936
0.0418422
0.017256
-0.270056
0.0210725
-0.238808
-0.0768446
0.0133174
0.329599
0.0212507
0.941
0.0182997
1.41022
0.00864042
1.75133
-0.00597633
2.07096
-0.0233525
2.41337
-0.0463448
2.81146
-0.077924
3.27057
-0.121326
3.80652
-0.195054
4.51628
-0.372072
4.98346
-0.642376
6.11661
-0.761292
6.867
-0.796716
5.92171
-0.672818
4.2626
-0.235977
1.82049
-0.132912
-0.0612223
-0.0876946
-0.315274
-0.0287248
-0.297778
-0.105569
0.0172635
0.312336
0.0299255
0.928338
0.0302164
1.40993
0.0225861
1.75896
0.0108571
2.08269
-0.00368369
2.42791
-0.0239026
2.83168
-0.0510713
3.29774
-0.0876874
3.84314
-0.144987
4.57358
-0.291473
5.12995
-0.480234
6.30537
-0.57948
6.96625
-0.657668
5.9999
-0.650851
4.25578
-0.507009
1.67664
-0.554666
-0.0135648
-0.403499
-0.466441
-0.207075
-0.494201
-0.312645
0.0228074
0.289528
0.0421654
0.90898
0.0469312
1.40517
0.0426417
1.76325
0.033398
2.09194
0.0202869
2.44102
0.00389404
2.84807
-0.0156212
3.31726
-0.0412901
3.86881
-0.0697502
4.60204
-0.153725
5.21392
-0.232958
6.38461
-0.29677
7.03006
-0.370535
6.07367
-0.472672
4.35792
-0.605551
1.80952
-0.740134
0.121018
-0.57669
-0.629884
-0.301135
-0.769756
-0.61378
0.0279182
0.26161
0.0549737
0.881924
0.0659105
1.39423
0.066045
1.76311
0.0601637
2.09782
0.0527085
2.44848
0.0438569
2.85692
0.0321566
3.32896
0.0181494
3.88281
0.00800948
4.61218
0.0296539
5.19228
0.0833288
6.33093
0.111037
7.00235
0.130817
6.05389
0.0804819
4.40826
-0.164241
2.05425
-0.471833
0.428609
-0.538112
-0.563606
-0.275257
-1.03261
-0.889037
0.0345198
0.22709
0.0724802
0.843964
0.0915984
1.37511
0.0967441
1.75797
0.0956889
2.09887
0.0926618
2.45151
0.0898258
2.85976
0.0866872
3.3321
0.0852844
3.88422
0.107349
4.59011
0.213683
5.08594
0.530149
6.01447
0.828391
6.70411
1.1986
5.68367
1.33069
4.27617
0.938231
2.4467
0.518984
0.847857
0.129891
-0.174513
-0.000400539
-0.902319
-0.889438
0.0390938
0.187997
0.0891835
0.793874
0.117978
1.34632
0.130293
1.74565
0.136518
2.09265
0.139356
2.44867
0.144773
2.85434
0.155659
3.32121
0.168662
3.87121
0.232568
4.52621
0.415035
4.90347
0.995015
5.43449
1.4193
6.27982
1.76454
5.33843
1.8922
4.14851
1.61229
2.72661
1.19262
1.26753
0.788357
0.229747
0.307965
-0.421927
-0.581473
0.0428088
0.145188
0.108474
0.728209
0.1516
1.30319
0.172623
1.72463
0.186544
2.07873
0.196566
2.43865
0.210578
2.84033
0.232416
3.29937
0.266184
3.83745
0.362197
4.43019
0.614483
4.65119
1.22038
4.82859
1.66052
5.83969
1.95674
5.04222
2.08474
4.02051
1.89218
2.91917
1.42122
1.73848
0.906121
0.74485
0.38818
0.0960142
-0.193293
0.0424013
0.102787
0.12425
0.646361
0.183795
1.24364
0.218597
1.68983
0.242903
2.05442
0.261097
2.42045
0.283955
2.81747
0.313662
3.26966
0.363868
3.78724
0.447535
4.34653
0.685031
4.41369
1.17669
4.33692
1.61688
5.3995
1.80417
4.85493
1.85434
3.97034
1.69917
3.07434
1.31337
2.12429
0.842743
1.21548
0.364948
0.573809
0.171655
0.0386104
0.0641761
0.139067
0.545904
0.219581
1.16313
0.268438
1.64097
0.303962
2.0189
0.332597
2.39182
0.364361
2.78571
0.401015
3.23301
0.436323
3.75193
0.449938
4.33291
0.575018
4.28861
0.932254
3.97969
1.35565
4.9761
1.45465
4.75593
1.43977
3.98522
1.30549
3.20862
1.01978
2.40999
0.642326
1.59293
0.261105
0.95503
0.43276
0.0352509
0.0289252
0.15045
0.430705
0.255674
1.05791
0.32558
1.57106
0.375345
1.96913
0.417003
2.35016
0.458873
2.74383
0.489835
3.20205
0.5063
3.73547
0.475281
4.36393
0.458738
4.30516
0.600794
3.83763
0.987739
4.58916
1.06811
4.67556
1.01549
4.03784
0.892958
3.33116
0.681236
2.62171
0.400461
1.87371
0.145112
1.21038
0.577872
0.0329635
-0.00403834
0.148133
0.315535
0.281704
0.924336
0.383251
1.46952
0.457618
1.89477
0.520936
2.28684
0.578471
2.6863
0.614009
3.16651
0.656879
3.6926
0.640081
4.38073
0.549769
4.39547
0.520482
3.86692
0.816102
4.29354
0.889431
4.60223
0.812757
4.11451
0.680638
3.46327
0.493906
2.80844
0.269441
2.09817
0.0891197
1.3907
0.666992
0.0221352
-0.0261735
0.0895364
0.248134
0.207604
0.806268
0.325298
1.35182
0.419018
1.80105
0.49508
2.21078
0.557804
2.62358
0.60437
3.11994
0.656002
3.64096
0.642997
4.39373
0.507223
4.53124
0.400616
3.97353
0.474577
4.21958
0.500183
4.57662
0.436057
4.17864
0.337795
3.56154
0.237407
2.90883
0.13382
2.20176
0.0324669
1.49205
0.699459
-0.00690088
-0.0192727
-0.00594821
0.247181
0.0509854
0.749334
0.147412
1.2554
0.255451
1.69301
0.364768
2.10146
0.469645
2.5187
0.579504
3.01009
0.685389
3.53508
0.729742
4.34938
0.595528
4.66546
0.386373
4.18268
0.34379
4.26216
0.315122
4.60529
0.239134
4.25463
0.163687
3.63698
0.109447
2.96307
0.0398274
2.27138
-0.00894224
1.54082
0.690516
-0.0213274
0.00205471
-0.04482
0.270674
-0.0276492
0.732163
0.0443869
1.18336
0.153843
1.58355
0.285526
1.96978
0.433386
2.37084
0.611059
2.83241
0.793221
3.35292
0.909177
4.23342
0.777568
4.79706
0.419009
4.54124
0.250669
4.4305
0.16494
4.69102
0.0932391
4.32633
0.0533032
3.67692
0.0173967
2.99898
-0.0304013
2.31918
-0.0328335
1.54326
0.657683
-0.0209658
0.0230205
-0.0520599
0.301768
-0.0506509
0.730754
0.00590217
1.12681
0.110016
1.47944
0.253453
1.82634
0.43193
2.19236
0.658157
2.60619
0.896125
3.11495
1.06636
4.06319
0.943381
4.92005
0.521754
4.96287
0.222448
4.72981
0.0936263
4.81984
0.021017
4.39894
-0.0182219
3.71616
-0.0888082
3.06956
-0.0983163
2.32869
-0.0698038
1.51474
0.587879
-0.0160193
0.0390398
-0.0438343
0.329583
-0.0453983
0.732318
0.00209333
1.07932
0.0972197
1.38431
0.237829
1.68573
0.422505
2.00769