/*--------------------------------*- C++ -*----------------------------------*\
| =========                 |                                                 |
| \\      /  F ield         | OpenFOAM: The Open Source CFD Toolbox           |
|  \\    /   O peration     | Version:  v2012                                 |
|   \\  /    A nd           | Website:  www.openfoam.com                      |
|    \\/     M anipulation  |                                                 |
\*---------------------------------------------------------------------------*/
FoamFile
{
    version     2.0;
    format      ascii;
    class       volScalarField;
    location    "15";
    object      p;
}
// * * * * * * * * * * * * * * * * * * * * * * * * * * * * * * * * * * * * * //

dimensions      [0 2 -2 0 0 0 0];


internalField   nonuniform List<scalar> 
2200
(
0.377711
0.356246
0.340394
0.324792
0.310287
0.297947
0.287769
0.27976
0.274121
0.271121
0.271406
0.274874
0.280848
0.28911
0.299465
0.311935
0.326525
0.342178
0.358062
0.379543
0.310028
0.306779
0.303928
0.299899
0.294558
0.288231
0.281774
0.276011
0.271643
0.269242
0.269485
0.272403
0.277141
0.283176
0.289825
0.29628
0.301714
0.305811
0.308706
0.311968
0.269832
0.270138
0.272346
0.273889
0.274531
0.273845
0.271965
0.269416
0.266933
0.265377
0.265678
0.267782
0.270675
0.273513
0.2756
0.276434
0.275896
0.274427
0.272276
0.271992
0.247107
0.248602
0.251527
0.25433
0.257015
0.259269
0.260662
0.261064
0.26068
0.26018
0.260572
0.261679
0.262508
0.262444
0.261295
0.259215
0.256656
0.253939
0.251069
0.249591
0.23303
0.234993
0.237936
0.240882
0.2439
0.246913
0.249658
0.25181
0.253217
0.253952
0.254375
0.254347
0.2535
0.251747
0.249293
0.246486
0.243616
0.240774
0.237895
0.235941
0.22602
0.227544
0.229826
0.232609
0.235488
0.23825
0.240787
0.243159
0.245284
0.246807
0.247281
0.246629
0.245211
0.243335
0.24113
0.238606
0.235892
0.233221
0.231007
0.229487
0.223539
0.224417
0.225942
0.228484
0.231173
0.233635
0.235744
0.237724
0.239574
0.241053
0.241658
0.241264
0.240262
0.238885
0.237171
0.235006
0.232515
0.2301
0.228634
0.227769
0.223388
0.223783
0.224771
0.226807
0.229076
0.231259
0.233197
0.23497
0.236508
0.237766
0.238512
0.238535
0.237957
0.236945
0.235566
0.233775
0.231764
0.2299
0.228981
0.228599
0.22365
0.22376
0.224289
0.225488
0.22693
0.228536
0.230242
0.231982
0.233559
0.234915
0.235839
0.23607
0.235663
0.234875
0.233886
0.232749
0.231621
0.230631
0.230193
0.230066
0.222287
0.222318
0.222513
0.22301
0.223687
0.224608
0.225823
0.22735
0.228986
0.230595
0.231833
0.232383
0.232324
0.23184
0.2314
0.231014
0.230694
0.230438
0.230338
0.230318
0.219326
0.2193
0.219422
0.219719
0.220187
0.220801
0.221661
0.222876
0.224364
0.226079
0.227626
0.228678
0.229232
0.229402
0.229391
0.22941
0.229389
0.22937
0.229373
0.229377
0.215923
0.215884
0.216072
0.216425
0.216983
0.217715
0.218677
0.219884
0.221388
0.22321
0.225015
0.226443
0.227413
0.228027
0.22836
0.228506
0.22852
0.2285
0.228498
0.228504
0.212385
0.212397
0.212562
0.212956
0.213548
0.214387
0.215529
0.216967
0.218784
0.220972
0.223213
0.224982
0.226225
0.227049
0.227607
0.227895
0.228015
0.228062
0.228087
0.228092
0.208237
0.208247
0.208387
0.208729
0.20932
0.21016
0.211393
0.213046
0.215232
0.217968
0.220879
0.223218
0.224881
0.22602
0.226798
0.227303
0.22762
0.227812
0.227907
0.227904
0.203325
0.203312
0.203511
0.203845
0.204424
0.205334
0.206682
0.208586
0.211192
0.214565
0.218271
0.221362
0.223568
0.225133
0.226226
0.22696
0.22744
0.227735
0.227876
0.227875
0.197512
0.197496
0.197736
0.198214
0.198962
0.200101
0.201747
0.20407
0.207257
0.21142
0.216044
0.219981
0.222827
0.224882
0.226279
0.227221
0.227836
0.228207
0.228379
0.228375
0.190936
0.190924
0.1912
0.191804
0.192773
0.194207
0.196297
0.199238
0.203245
0.208464
0.214247
0.21917
0.222775
0.225329
0.227058
0.22822
0.228965
0.229401
0.229599
0.22959
0.183208
0.183205
0.183586
0.18436
0.185592
0.187409
0.190039
0.193742
0.198798
0.205367
0.212606
0.218731
0.223211
0.226356
0.228514
0.22997
0.230918
0.231488
0.231746
0.231734
0.174166
0.174152
0.174608
0.175539
0.177076
0.179399
0.182754
0.187469
0.193867
0.202131
0.211164
0.218764
0.224308
0.228218
0.230914
0.23273
0.233906
0.234596
0.234902
0.23488
0.163109
0.163123
0.163766
0.165021
0.167021
0.169994
0.174299
0.180334
0.188465
0.198856
0.210074
0.219452
0.226273
0.231077
0.234382
0.236603
0.238054
0.238927
0.239319
0.239299
0.149755
0.149743
0.150537
0.152142
0.154768
0.158728
0.16436
0.172164
0.182535
0.195571
0.209431
0.220926
0.229269
0.23516
0.239234
0.241991
0.243783
0.244833
0.245292
0.245248
0.132785
0.132873
0.134057
0.136299
0.139868
0.14515
0.152623
0.162838
0.176095
0.192389
0.209395
0.223372
0.233496
0.240665
0.245626
0.248979
0.251181
0.252496
0.253074
0.25303
0.111625
0.111656
0.11325
0.116405
0.121383
0.128734
0.138829
0.152229
0.169131
0.189347
0.210008
0.226829
0.239003
0.24767
0.253753
0.257933
0.260686
0.262321
0.263019
0.262921
0.0834481
0.0839002
0.0864602
0.0912078
0.0985444
0.108921
0.122736
0.140377
0.161801
0.18665
0.211504
0.231538
0.24605
0.256469
0.263852
0.269
0.272453
0.2745
0.275407
0.275286
0.0459947
0.0467056
0.0509725
0.0589301
0.0703398
0.0853908
0.104424
0.127487
0.154354
0.184539
0.214025
0.237543
0.254586
0.266948
0.275891
0.282281
0.286729
0.289506
0.290719
0.290441
-0.00382347
-0.00317418
0.00487388
0.0182996
0.0363349
0.0583047
0.084168
0.113841
0.147075
0.183198
0.217634
0.244836
0.264625
0.279151
0.289883
0.297807
0.303465
0.306954
0.308199
0.307804
-0.0723342
-0.0683158
-0.0510418
-0.0281258
-0.00121501
0.0290423
0.0627342
0.0999122
0.140242
0.183001
0.223108
0.25475
0.278093
0.295635
0.308964
0.319193
0.327025
0.332474
0.334371
0.334252
-0.153504
-0.139241
-0.10943
-0.0760123
-0.0394073
-0.000665318
0.0412717
0.0862913
0.133942
0.183747
0.230176
0.266977
0.29453
0.315763
0.332585
0.346039
0.356861
0.364742
0.369863
0.370594
-0.21891
-0.201729
-0.163669
-0.122115
-0.0769102
-0.0295559
0.0206735
0.0732803
0.128025
0.184609
0.236939
0.278395
0.309568
0.333673
0.352756
0.368116
0.380196
0.389411
0.394187
0.39471
-0.26765
-0.252373
-0.209553
-0.162982
-0.111054
-0.0563214
0.00118514
0.0607143
0.122208
0.185218
0.243002
0.288417
0.322192
0.347991
0.367995
0.383824
0.396249
0.405265
0.409998
0.410674
-0.307585
-0.292698
-0.247585
-0.19797
-0.140765
-0.0803626
-0.0169048
0.0487416
0.116387
0.185148
0.247591
0.295978
0.331412
0.358059
0.378395
0.394197
0.406583
0.41575
0.42066
0.421331
-0.341801
-0.326619
-0.279531
-0.227638
-0.166435
-0.101805
-0.0335698
0.037305
0.110242
0.183968
0.250441
0.301408
0.338178
0.365457
0.386172
0.402074
0.414596
0.423514
0.428742
0.429166
-0.371886
-0.356714
-0.307389
-0.253132
-0.188855
-0.121119
-0.0490536
0.0262108
0.103699
0.181984
0.252371
0.305801
0.343949
0.372001
0.393118
0.409107
0.421546
0.43062
0.435369
0.435903
-0.398987
-0.384047
-0.332672
-0.275901
-0.209002
-0.138808
-0.0635916
0.0153801
0.0968817
0.179409
0.253521
0.309521
0.349292
0.378161
0.399728
0.41597
0.428289
0.437338
0.441964
0.442453
-0.423806
-0.408979
-0.35639
-0.297197
-0.227847
-0.155361
-0.077367
0.00480487
0.0899016
0.176482
0.254512
0.313462
0.354855
0.384634
0.406486
0.422705
0.434977
0.443842
0.448523
0.449067
-0.447174
-0.431884
-0.379024
-0.317798
-0.246185
-0.171323
-0.0906679
-0.00560229
0.0828239
0.173307
0.255234
0.316814
0.359875
0.390544
0.413004
0.429601
0.441976
0.450748
0.455393
0.455866
-0.469108
-0.453602
-0.400528
-0.337881
-0.264412
-0.187198
-0.103946
-0.0161694
0.0753153
0.169336
0.254779
0.319527
0.364934
0.397049
0.420034
0.436821
0.449169
0.457772
0.462418
0.462932
-0.489841
-0.474434
-0.420897
-0.357275
-0.282456
-0.203194
-0.117577
-0.0273042
0.0669943
0.164403
0.253825
0.322099
0.369738
0.403221
0.427094
0.444282
0.456855
0.465481
0.469951
0.470377
-0.5099
-0.494326
-0.440291
-0.375894
-0.300074
-0.21921
-0.131612
-0.0390886
0.0579254
0.158706
0.252086
0.323646
0.374234
0.409782
0.434776
0.452489
0.465083
0.473351
0.477826
0.478225
-0.52965
-0.513451
-0.458962
-0.393841
-0.317135
-0.235026
-0.145818
-0.0513097
0.0481958
0.151992
0.248831
0.324438
0.378674
0.416793
0.443115
0.461246
0.473837
0.482253
0.486343
0.486538
-0.549049
-0.532054
-0.477193
-0.411292
-0.333676
-0.250508
-0.159971
-0.0638025
0.0378146
0.144304
0.244831
0.324527
0.382024
0.423258
0.451746
0.470916
0.483548
0.491131
0.494909
0.494981
-0.567979
-0.55031
-0.495099
-0.428363
-0.349828
-0.26569
-0.174024
-0.0764746
0.0269333
0.135854
0.239764
0.323187
0.384984
0.429781
0.461139
0.481684
0.49415
0.501047
0.50396
0.503683
-0.586339
-0.568228
-0.512641
-0.445061
-0.365675
-0.280653
-0.188001
-0.0892657
0.0156833
0.126603
0.2332
0.320524
0.386486
0.435725
0.471048
0.4942
0.506966
0.511602
0.51212
0.511733
-0.604086
-0.585669
-0.529682
-0.461318
-0.381213
-0.295425
-0.201912
-0.10217
0.00404449
0.116603
0.225596
0.316535
0.386688
0.440566
0.480725
0.508309
0.522881
0.525503
0.52136
0.518483
-0.621168
-0.602499
-0.5461
-0.477047
-0.396366
-0.309947
-0.215723
-0.115171
-0.00795864
0.105958
0.216906
0.310565
0.38456
0.443687
0.490013
0.524063
0.54419
0.544579
0.536163
0.540637
-0.637545
-0.618619
-0.561807
-0.492172
-0.411037
-0.324123
-0.229343
-0.12815
-0.0201522
0.0948306
0.207216
0.302918
0.380457
0.444104
0.496528
0.538776
0.570194
0.567723
0.524557
0.472699
-0.653154
-0.634076
-0.576854
-0.506757
-0.425295
-0.338034
-0.242879
-0.141253
-0.0327085
0.083033
0.196302
0.293392
0.373335
0.440999
0.498958
0.550903
0.597591
0.628293
0.656448
0.707817
-0.667927
-0.648926
-0.591345
-0.520941
-0.439294
-0.351871
-0.256578
-0.154829
-0.0461066
0.0698395
0.183378
0.280689
0.361544
0.431894
0.491535
0.542098
0.579348
0.601876
0.588318
0.592984
-0.68187
-0.663124
-0.605258
-0.534684
-0.452964
-0.365546
-0.270318
-0.168694
-0.0602035
0.0554352
0.168779
0.265604
0.345316
0.413544
0.470346
0.512727
0.521221
0.490078
0.440613
0.434975
-0.69506
-0.676649
-0.618601
-0.548001
-0.466315
-0.37906
-0.284076
-0.182829
-0.0749231
0.0400008
0.152458
0.247336
0.323223
0.385206
0.434493
0.450282
0.420964
0.355193
0.285328
0.27886
-0.707553
-0.689515
-0.631395
-0.560916
-0.479375
-0.392437
-0.297868
-0.197246
-0.0902176
0.0233484
0.133848
0.226019
0.295566
0.344754
0.369366
0.356918
0.310837
0.209277
0.120991
0.106496
-0.719768
-0.702149
-0.644026
-0.573782
-0.492491
-0.40598
-0.311957
-0.212136
-0.106275
0.00545508
0.113413
0.201777
0.264466
0.298845
0.287993
0.247175
0.1402
0.0139849
-0.0968756
-0.118792
-0.732527
-0.715304
-0.657156
-0.587187
-0.506208
-0.420148
-0.326726
-0.227841
-0.123351
-0.0137852
0.0907601
0.174245
0.23027
0.240085
0.193806
0.100771
-0.0670765
-0.227203
-0.359102
-0.383895
-0.746298
-0.729385
-0.671077
-0.601333
-0.520691
-0.435047
-0.34226
-0.244401
-0.141446
-0.0343976
0.0659146
0.143917
0.188631
0.173399
0.0974125
-0.0660587
-0.288277
-0.518411
-0.709076
-0.756811
-0.761115
-0.744404
-0.685812
-0.616217
-0.535898
-0.450633
-0.358489
-0.261739
-0.160491
-0.0562008
0.0395711
0.113105
0.143052
0.0902536
-0.0221819
-0.240539
-0.50733
-0.833162
-1.18319
-1.32339
-0.777029
-0.760457
-0.701425
-0.631913
-0.551856
-0.466929
-0.375444
-0.279889
-0.180501
-0.0791622
0.0112408
0.0770394
0.0929646
0.000265347
-0.167398
-0.419373
-0.701855
-1.10248
-1.7466
-2.34808
-0.794019
-0.77746
-0.717873
-0.648504
-0.568559
-0.483906
-0.393079
-0.29871
-0.201285
-0.103044
-0.0174979
0.0413912
0.0392417
-0.0851397
-0.314009
-0.61033
-0.871579
-1.17586
-1.83552
-3.54656
-0.81212
-0.795485
-0.735208
-0.666125
-0.586096
-0.501703
-0.41155
-0.318424
-0.223118
-0.12837
-0.0479969
0.00242162
-0.0158409
-0.155657
-0.431571
-0.747428
-0.959753
-1.05472
-1.10714
-1.5513
-0.831216
-0.814371
-0.753613
-0.685018
-0.604752
-0.520705
-0.431405
-0.339628
-0.246724
-0.155838
-0.080114
-0.0390406
-0.0827109
-0.211727
-0.499317
-0.789012
-0.964543
-1.00936
-0.971123
-1.02316
-0.851279
-0.834095
-0.773203
-0.70514
-0.624481
-0.540969
-0.452646
-0.362355
-0.272084
-0.185863
-0.115142
-0.0790197
-0.142826
-0.266544
-0.545179
-0.789665
-0.932924
-0.979611
-1.00916
-1.02888
-0.871871
-0.854441
-0.794152
-0.726338
-0.645183
-0.5624
-0.475208
-0.386497
-0.299072
-0.21792
-0.151697
-0.122188
-0.201121
-0.330478
-0.586502
-0.792234
-0.912964
-0.909198
-0.937958
-0.935375
-0.89287
-0.875305
-0.816092
-0.74827
-0.666644
-0.584868
-0.498882
-0.411776
-0.327344
-0.251288
-0.189657
-0.160424
-0.257329
-0.413692
-0.635643
-0.795481
-0.896529
-0.90029
-0.910342
-0.915783
-0.913959
-0.896497
-0.83835
-0.770484
-0.688657
-0.608121
-0.523155
-0.43784
-0.356314
-0.285371
-0.2311
-0.205653
-0.309679
-0.501852
-0.692509
-0.802519
-0.863639
-0.923428
-0.893343
-0.904947
-0.934829
-0.917625
-0.860281
-0.792204
-0.711042
-0.631735
-0.547552
-0.464085
-0.385144
-0.318738
-0.272475
-0.249696
-0.373588
-0.605575
-0.77063
-0.829672
-0.799674
-0.891746
-0.870585
-0.889818
-0.954782
-0.938077
-0.881256
-0.813226
-0.733281
-0.655067
-0.571306
-0.490161
-0.413758
-0.350149
-0.314329
-0.283164
-0.431398
-0.707857
-0.871286
-0.867901
-0.796493
-0.842255
-0.8817
-0.892874
-0.973172
-0.95706
-0.900724
-0.83283
-0.754963
-0.677052
-0.593822
-0.515756
-0.441236
-0.378183
-0.357908
-0.318884
-0.48798
-0.81123
-1.05012
-1.10988
-1.08926
-1.06953
-1.083
-1.07716
-0.988745
-0.973488
-0.918193
-0.850781
-0.774515
-0.696128
-0.615165
-0.538842
-0.466078
-0.401078
-0.398611
-0.348619
-0.543161
-0.914453
-1.33942
-1.70876
-1.79049
-1.70842
-1.64411
-1.57921
-1.00063
-0.986336
-0.932473
-0.86555
-0.790195
-0.712421
-0.633926
-0.558138
-0.487183
-0.419328
-0.419324
-0.362457
-0.552974
-0.934358
-1.45852
-2.03034
-2.24339
-2.13858
-2.01716
-1.93029
-1.00709
-0.993933
-0.941895
-0.875574
-0.801048
-0.72462
-0.648032
-0.573955
-0.501972
-0.434633
-0.420049
-0.370518
-0.512853
-0.789236
-1.1484
-1.50909
-1.60678
-1.54792
-1.39222
-1.30802
-1.00667
-0.994584
-0.944671
-0.879271
-0.805912
-0.731557
-0.6568
-0.585237
-0.511614
-0.441858
-0.398261
-0.338367
-0.362162
-0.350231
-0.321339
-0.299039
-0.241424
-0.162499
-0.104836
-0.0424611
-0.997105
-0.986513
-0.939335
-0.87529
-0.803703
-0.731925
-0.660148
-0.591983
-0.520741
-0.432516
-0.355614
-0.260738
-0.108672
0.135675
0.428428
0.675788
0.860841
0.987303
1.04082
1.0599
-0.976459
-0.967315
-0.923867
-0.862157
-0.792792
-0.724239
-0.656976
-0.591904
-0.525873
-0.441849
-0.324877
-0.17922
0.0811566
0.427755
0.830879
1.18069
1.45491
1.59526
1.63638
1.64713
-0.94337
-0.935908
-0.896175
-0.837886
-0.772545
-0.708378
-0.647226
-0.588175
-0.533069
-0.470536
-0.334605
-0.162373
0.11804
0.490913
0.895841
1.25064
1.5265
1.66688
1.70923
1.71999
-0.896852
-0.891414
-0.85628
-0.803263
-0.743409
-0.685417
-0.633534
-0.589665
-0.562266
-0.54593
-0.474055
-0.321037
-0.0165497
0.361716
0.757191
1.10617
1.35054
1.47654
1.5172
1.53119
-0.837752
-0.833118
-0.804052
-0.758284
-0.705745
-0.656933
-0.619184
-0.601033
-0.626629
-0.701758
-0.781806
-0.631397
-0.293266
0.107613
0.524922
0.844807
1.04549
1.14102
1.18476
1.20103
-0.769456
-0.76501
-0.740592
-0.702107
-0.658511
-0.621197
-0.597383
-0.602344
-0.675568
-0.852329
-1.11762
-0.958016
-0.519426
-0.101972
0.267477
0.515329
0.684168
0.754134
0.794575
0.809289
-0.679957
-0.678102
-0.659611
-0.631007
-0.597373
-0.568848
-0.552406
-0.563641
-0.639523
-0.800265
-1.12585
-0.978928
-0.544413
-0.170985
0.125128
0.312671
0.425332
0.460243
0.498149
0.505674
-0.564476
-0.565476
-0.555855
-0.537895
-0.515602
-0.496777
-0.482713
-0.491023
-0.550106
-0.683045
-0.898021
-0.734632
-0.376541
-0.113689
0.0920704
0.211607
0.275313
0.304569
0.32079
0.324894
-0.450223
-0.449687
-0.443976
-0.433883
-0.420285
-0.406273
-0.394875
-0.395524
-0.426537
-0.505007
-0.603442
-0.421208
-0.183239
-0.0312567
0.0860202
0.149676
0.183362
0.200913
0.211121
0.214821
-0.335608
-0.336094
-0.33355
-0.327875
-0.31974
-0.309793
-0.299142
-0.292131
-0.297343
-0.323088
-0.336
-0.184886
-0.056856
0.028714
0.0872383
0.115551
0.133386
0.143314
0.149102
0.150713
-0.232218
-0.233107
-0.232083
-0.228912
-0.224062
-0.217068
-0.206994
-0.194894
-0.18216
-0.171838
-0.130647
-0.0369046
0.0253526
0.0713497
0.0923659
0.102863
0.110716
0.11505
0.117207
0.117563
-0.145968
-0.14682
-0.146914
-0.1453
-0.141961
-0.136656
-0.127476
-0.113486
-0.092204
-0.0577847
-0.0108752
0.0443405
0.0770668
0.0951672
0.0990299
0.101046
0.102843
0.103531
0.103481
0.1027
-0.0800118
-0.0807643
-0.0817405
-0.0814193
-0.0791067
-0.0746148
-0.0662932
-0.0531257
-0.0322777
0.00218139
0.0448456
0.0828765
0.0980322
0.10365
0.102129
0.100694
0.0994647
0.0980398
0.0967657
0.0955244
-0.0327163
-0.033314
-0.0346263
-0.0354996
-0.0345004
-0.0310944
-0.0240104
-0.0125371
0.00537852
0.0337716
0.0674257
0.0952673
0.101942
0.103266
0.100516
0.0978739
0.0953444
0.0930015
0.0912762
0.0901433
-0.000688572
-0.0011431
-0.00235608
-0.00377822
-0.0038917
-0.00196422
0.00322748
0.0126471
0.0273984
0.049803
0.0744699
0.0942964
0.0980512
0.0981236
0.0954192
0.0925445
0.0897096
0.0872313
0.0856033
0.0847061
0.019591
0.0192611
0.0183069
0.0170013
0.016422
0.0170949
0.020279
0.0272022
0.0386078
0.0557865
0.073898
0.087801
0.0906437
0.0905007
0.0882858
0.0857727
0.0833296
0.0812469
0.079954
0.0792712
0.0316625
0.0314119
0.0307499
0.0298431
0.0293839
0.0295607
0.0313547
0.035798
0.0437818
0.056299
0.0695379
0.0793844
0.0817954
0.0818078
0.0802677
0.0784088
0.0766294
0.0750947
0.0741655
0.0736662
0.038986
0.038781
0.0383486
0.0377574
0.0375314
0.0377097
0.0389266
0.0416431
0.04678
0.0551967
0.0644075
0.0711898
0.0731296
0.0732983
0.0723656
0.0710867
0.0698154
0.0686757
0.0680168
0.0676607
0.0436993
0.0435316
0.0431843
0.0426384
0.0423494
0.0424395
0.0433846
0.0452089
0.0485732
0.0539301
0.0598948
0.0642737
0.0656536
0.0658176
0.0652165
0.0642421
0.063203
0.0622586
0.0617483
0.0614923
0.0461737
0.046028
0.0456573
0.0449886
0.0444295
0.0441995
0.0446969
0.0459276
0.0483015
0.0518604
0.0557097
0.0584585
0.0593528
0.0593842
0.058862
0.0580065
0.0570794
0.0562539
0.0558288
0.0556369
0.0462854
0.0461543
0.045766
0.0450353
0.0443147
0.0438091
0.0437922
0.0444093
0.0460034
0.0485093
0.0512029
0.0530384
0.0536149
0.0535137
0.0530032
0.052255
0.0514657
0.0507756
0.0504293
0.0502818
0.0445183
0.0444112
0.0440688
0.0434115
0.0427346
0.0421798
0.041868
0.0420039
0.0428747
0.044521
0.0464189
0.047688
0.0480566
0.0478978
0.0474431
0.0468401
0.0462187
0.0456756
0.0454094
0.0452983
0.0417026
0.0416269
0.0413606
0.040824
0.0402698
0.0397882
0.0394173
0.0393327
0.039685
0.0406007
0.0417735
0.0425536
0.0427347
0.0425575
0.0421779
0.0417108
0.0412354
0.0408179
0.0406193
0.0405369
0.0382912
0.0382414
0.0380357
0.0375954
0.037141
0.0367206
0.0363633
0.0362122
0.0362883
0.0367281
0.0373393
0.0377247
0.0377478
0.0375576
0.0372309
0.0368549
0.0364799
0.0361516
0.0359996
0.0359372
0.0344242
0.034391
0.0342226
0.033848
0.0334634
0.0330766
0.032727
0.0325383
0.0324767
0.0326761
0.0329617
0.03311
0.0330357
0.0328317
0.0325347
0.0322162
0.0319087
0.0316426
0.0315214
0.031474
0.0301933
0.0301693
0.0300334
0.029725
0.0294086
0.0290646
0.0287337
0.0285203
0.0283748
0.0284416
0.028555
0.0285837
0.0284597
0.0282572
0.0279976
0.0277341
0.0274871
0.0272759
0.0271802
0.0271434
0.0257368
0.0257196
0.0256138
0.0253716
0.0251218
0.0248359
0.0245462
0.0243334
0.0241439
0.0241201
0.0241301
0.0240976
0.0239587
0.0237769
0.0235603
0.0233481
0.0231526
0.0229872
0.0229123
0.0228837
0.0211567
0.0211449
0.0210677
0.0208883
0.0206997
0.0204764
0.0202421
0.0200575
0.0198654
0.0197877
0.019727
0.0196556
0.0195202
0.0193645
0.0191873
0.0190178
0.0188648
0.0187383
0.0186815
0.0186608
0.0165207
0.0165118
0.0164551
0.0163241
0.0161839
0.0160171
0.0158377
0.0156908
0.0155229
0.0154353
0.015349
0.0152641
0.0151406
0.0150125
0.0148743
0.0147439
0.0146272
0.0145313
0.0144872
0.0144711
0.0118495
0.011845
0.0118048
0.0117113
0.0116091
0.0114891
0.0113571
0.0112473
0.0111164
0.0110426
0.0109644
0.010891
0.0107939
0.010698
0.0105959
0.0105005
0.0104162
0.0103477
0.0103165
0.0103059
0.007136
0.00713307
0.00710833
0.00705069
0.00698723
0.00691491
0.00683186
0.00676688
0.00667958
0.00663236
0.00657687
0.006527
0.00646391
0.0064061
0.00634255
0.00628397
0.00623178
0.00618854
0.00616944
0.00616247
0.00239711
0.00239643
0.00238575
0.00235979
0.0023345
0.00231026
0.00227733
0.00226058
0.00222436
0.00221217
0.00219233
0.00217819
0.00215329
0.00213447
0.00211134
0.00209045
0.00206915
0.00204823
0.0020402
0.002037
-1.66408
-0.733963
-0.457425
-0.155481
0.0509457
0.230859
0.384006
0.539854
0.705316
0.783576
-0.607809
-0.159786
-0.121651
0.0820447
0.227839
0.358392
0.472846
0.573145
0.609146
0.562764
-0.178702
0.05841
0.112238
0.256145
0.358571
0.451076
0.527891
0.585058
0.592228
0.602794
0.0821453
0.243765
0.283036
0.397777
0.462748
0.528859
0.57966
0.615356
0.626674
0.649217
0.282429
0.39453
0.42378
0.505755
0.550809
0.598485
0.633945
0.659997
0.671376
0.701928
0.435796
0.51333
0.543833
0.594739
0.632573
0.666034
0.692541
0.714067
0.729336
0.756834
0.563483
0.618545
0.645421
0.676943
0.706897
0.732375
0.753725
0.773563
0.788962
0.814981
0.67238
0.712234
0.734446
0.756593
0.778988
0.799469
0.817547
0.83608
0.851289
0.874859
0.770139
0.799891
0.81761
0.833634
0.850666
0.867347
0.883321
0.900802
0.914574
0.936902
0.86026
0.881496
0.896912
0.910552
0.924635
0.938886
0.952623
0.967396
0.978891
0.998523
0.94719
0.963223
0.977419
0.989648
1.00191
1.01368
1.02482
1.03641
1.04398
1.0608
1.03313
1.0462
1.06012
1.07192
1.08254
1.09227
1.101
1.10922
1.11292
1.12417
1.12266
1.1336
1.14713
1.15634
1.16379
1.17103
1.17833
1.18504
1.18606
1.19345
1.22117
1.22592
1.23398
1.23852
1.24182
1.24631
1.25229
1.26002
1.26391
1.27379
1.33468
1.32098
1.31354
1.30784
1.30514
1.30651
1.31303
1.32549
1.34018
1.36981
1.45541
1.39981
1.36887
1.35179
1.34366
1.34369
1.35235
1.37173
1.40374
1.47293
)
;

boundaryField
{
    wall-4
    {
        type            zeroGradient;
    }
    pressure-outlet-7
    {
        type            fixedValue;
        value           uniform 0;
    }
    velocity-inlet-6
    {
        type            zeroGradient;
    }
    velocity-inlet-5
    {
        type            zeroGradient;
    }
    frontAndBackPlanes
    {
        type            empty;
    }
}


// ************************************************************************* //
