/*--------------------------------*- C++ -*----------------------------------*\
| =========                 |                                                 |
| \\      /  F ield         | OpenFOAM: The Open Source CFD Toolbox           |
|  \\    /   O peration     | Version:  v2012                                 |
|   \\  /    A nd           | Website:  www.openfoam.com                      |
|    \\/     M anipulation  |                                                 |
\*---------------------------------------------------------------------------*/
FoamFile
{
    version     2.0;
    format      ascii;
    class       surfaceScalarField;
    location    "15";
    object      phi;
}
// * * * * * * * * * * * * * * * * * * * * * * * * * * * * * * * * * * * * * //

dimensions      [0 3 -1 0 0 0 0];
oriented        oriented;


internalField   nonuniform List<scalar> 
4262
(
0.106925
0.471063
0.095366
0.705145
0.0689899
0.858679
0.0467136
1.02104
0.0300952
1.21513
0.0188921
1.44942
0.0116287
1.73313
0.00670819
2.07596
0.00313226
2.48882
-0.000189042
2.98561
-0.00356811
2.98567
-0.00717415
2.48885
-0.0120192
2.07588
-0.0191556
1.733
-0.0302741
1.44934
-0.0468583
1.2151
-0.0691029
1.02101
-0.0954332
0.858633
-0.106967
0.705119
0.471022
0.112523
0.358539
0.134484
0.683185
0.119749
0.873414
0.0974635
1.04333
0.0742356
1.23836
0.0525546
1.4711
0.0346559
1.75103
0.0209002
2.08971
0.00957909
2.50014
-0.00071648
2.99591
-0.0109157
2.99587
-0.021945
2.49988
-0.0355013
2.08944
-0.0533304
1.75083
-0.0749421
1.47095
-0.098053
1.23821
-0.120213
1.04317
-0.134836
0.873256
-0.112712
0.682995
0.35831
0.0915564
0.266983
0.123775
0.650966
0.119595
0.877593
0.103648
1.05927
0.0858879
1.25612
0.0668707
1.49012
0.0474419
1.77045
0.029255
2.1079
0.0134147
2.51598
-0.00109205
3.01042
-0.0155919
3.01037
-0.0312645
2.51555
-0.0493351
2.10751
-0.0685499
1.77004
-0.0872576
1.48966
-0.104752
1.25571
-0.120487
1.0589
-0.124419
0.877189
-0.0918587
0.650435
0.266451
0.0619322
0.205051
0.101313
0.611586
0.102146
0.876761
0.0902106
1.07121
0.0763375
1.27
0.0628959
1.50356
0.0479599
1.78539
0.0318285
2.12403
0.0153684
2.53244
-0.00173372
3.02752
-0.0187024
3.02734
-0.034953
2.5318
-0.0506179
2.12317
-0.0650934
1.78452
-0.0781414
1.50271
-0.0916432
1.26921
-0.103237
1.0705
-0.10205
0.876001
-0.0622446
0.61063
0.204206
0.0347856
0.170265
0.0751981
0.571173
0.0841961
0.867762
0.0764493
1.07896
0.0641104
1.28233
0.0527594
1.51491
0.0415207
1.79663
0.0290634
2.13649
0.0147762
2.54673
-0.00231917
3.04461
-0.0190681
3.04409
-0.0327937
2.54553
-0.0447297
2.13511
-0.0555068
1.7953
-0.0663847
1.51358
-0.0783857
1.28121
-0.0857462
1.07786
-0.0762375
0.866493
-0.0351539
0.569546
0.169053
0.0169531
0.153312
0.0511384
0.536988
0.0648213
0.85408
0.0624127
1.08136
0.053528
1.29122
0.0431621
1.52528
0.0329529
1.80684
0.0225733
2.14687
0.0110408
2.55826
-0.00308133
3.05874
-0.0168752
3.05788
-0.0277861
2.55644
-0.0374283
2.14475
-0.047024
1.80489
-0.0568758
1.52344
-0.0651752
1.28951
-0.0669382
1.07962
-0.0524554
0.85201
-0.0173975
0.534488
0.151655
0.00679349
0.146519
0.0311737
0.512607
0.0451766
0.840077
0.0466921
1.07985
0.0423458
1.29557
0.0351477
1.53248
0.0271256
1.81486
0.018137
2.15586
0.00792909
2.56847
-0.00394656
3.07061
-0.0156096
3.06954
-0.025269
2.5661
-0.0334389
2.15292
-0.0402596
1.81171
-0.0464804
1.52966
-0.0498928
1.29292
-0.0474723
1.0772
-0.0324835
0.837021
-0.00729234
0.509297
0.144363
0.00095148
0.145567
0.0141552
0.499404
0.0251253
0.829107
0.0290367
1.07594
0.0292226
1.29538
0.0266907
1.53501
0.0220372
1.81951
0.0150251
2.16287
0.00584268
2.57765
-0.00494426
3.0814
-0.0153007
3.0799
-0.0234892
2.57429
-0.0290888
2.15852
-0.0324044
1.81503
-0.033857
1.53111
-0.0326053
1.29167
-0.0276785
1.07227
-0.0156709
0.825013
-0.00148066
0.495107
0.142882
-0.00155689
0.147124
0.00356876
0.494278
0.0109137
0.821762
0.0156938
1.07116
0.0184795
1.29259
0.018903
1.53459
0.0167386
1.82168
0.0116698
2.16794
0.00379468
2.58553
-0.00613045
3.09132
-0.0154337
3.0892
-0.0220396
2.58089
-0.025782
2.16226
-0.0266457
1.81589
-0.0246274
1.52909
-0.0204524
1.28749
-0.014374
1.06619
-0.0056955
0.816335
0.000770786
0.488641
0.143653
-0.0012104
0.148334
0.000683991
0.492384
0.00558944
0.816856
0.010308
1.06644
0.0136314
1.28927
0.0144798
1.53374
0.012681
1.82348
0.00839348
2.17222
0.00142731
2.59249
-0.00767818
3.10043
-0.0162247
3.09775
-0.021749
2.58642
-0.0244833
2.165
-0.0244443
1.81585
-0.0216463
1.52629
-0.0165773
1.28243
-0.0101223
1.05974
-0.00328675
0.809499
0.000250906
0.485103
0.143904
-0.000451906
0.148786
0.000193115
0.491739
0.004052
0.812997
0.0085951
1.0619
0.0119056
1.28596
0.0125261
1.53312
0.0103443
1.82566
0.00556586
2.177
-0.00150047
2.59956
-0.0102093
3.10914
-0.0181268
3.10567
-0.0229744
2.59126
-0.0250928
2.16712
-0.0245908
1.81535
-0.0217615
1.52346
-0.0162523
1.27692
-0.00956522
1.05305
-0.00359303
0.803527
-0.000665146
0.482175
0.143239
-0.000695512
0.149482
-0.000916508
0.49196
0.00189343
0.810187
0.00607302
1.05772
0.00938198
1.28265
0.0100624
1.53244
0.00775743
1.82796
0.00277773
2.18198
-0.00443543
2.60677
-0.0129046
3.11761
-0.0202369
3.113
-0.0247285
2.59576
-0.025845
2.16823
-0.0249569
1.81446
-0.0212215
1.51973
-0.0151203
1.27081
-0.00835357
1.04629
-0.00314632
0.79832
-0.000785727
0.479814
0.142453
-0.00126885
0.150751
-0.002463
0.493154
-0.00156798
0.809292
0.00149383
1.05465
0.00405499
1.28009
0.00467185
1.53182
0.00272646
1.82991
-0.00169132
2.1864
-0.00817449
2.61325
-0.0158204
3.12525
-0.0220558
3.11924
-0.0254961
2.5992
-0.0259716
2.16871
-0.0241369
1.81263
-0.0195969
1.51519
-0.0134376
1.26466
-0.00707787
1.03993
-0.00260488
0.793847
-0.000662244
0.477872
0.141791
-0.00145414
0.152205
-0.00349578
0.495195
-0.00374737
0.809544
-0.00224825
1.05315
-0.000896086
1.27874
-0.0010616
1.53199
-0.00333817
1.83219
-0.00757315
2.19064
-0.0133962
2.61908
-0.0199935
3.13185
-0.0248009
3.12404
-0.026649
2.60104
-0.0259803
2.16804
-0.0228931
1.80954
-0.0181873
1.51048
-0.0125067
1.25897
-0.00695313
1.03437
-0.00300124
0.789895
-0.000913289
0.475784
0.140877
-0.0017006
0.153905
-0.00441599
0.497911
-0.00566438
0.810792
-0.00594137
1.05343
-0.00612652
1.27892
-0.00733379
1.53319
-0.0100175
1.83487
-0.0141997
2.19482
-0.0194895
2.62437
-0.024983
3.13734
-0.0282883
3.12735
-0.0285222
2.60128
-0.0267957
2.16631
-0.0230908
1.80584
-0.0183654
1.50576
-0.0130946
1.2537
-0.00805366
1.02933
-0.00411307
0.785955
-0.00142186
0.473093
0.139455
-0.00190828
0.155814
-0.00511303
0.501116
-0.00732506
0.813004
-0.00867901
1.05479
-0.0104501
1.28069
-0.0131719
1.53591
-0.0170204
1.83872
-0.0218265
2.19962
-0.0270711
2.62961
-0.0316075
3.14188
-0.0333383
3.12908
-0.0319234
2.59986
-0.0288094
2.1632
-0.0242309
1.80126
-0.0190287
1.50055
-0.0137538
1.24843
-0.00892952
1.02451
-0.00491601
0.781941
-0.00173999
0.469917
0.137715
-0.00267915
0.158493
-0.00714057
0.505577
-0.0110054
0.816869
-0.0139839
1.05776
-0.0170332
1.28374
-0.0207315
1.53961
-0.0252213
1.84321
-0.0303942
2.2048
-0.035548
2.63477
-0.0392594
3.14559
-0.0394981
3.12932
-0.0367024
2.59707
-0.0321984
2.15869
-0.0268972
1.79596
-0.021367
1.49502
-0.0159811
1.24304
-0.010907
1.01943
-0.00621715
0.777251
-0.00219807
0.465898
0.135517
-0.0032548
0.161748
-0.00863711
0.510959
-0.0134942
0.821726
-0.0179503
1.06222
-0.0229011
1.28869
-0.0285815
1.54529
-0.0348253
1.84945
-0.0411423
2.21111
-0.0466569
2.64028
-0.049678
3.14861
-0.0482862
3.12793
-0.0437764
2.59256
-0.0375937
2.15251
-0.0308418
1.7892
-0.0241604
1.48834
-0.0179511
1.23683
-0.0123491
1.01383
-0.00719086
0.772093
-0.00257514
0.461282
0.132942
-0.00452664
0.166274
-0.0120426
0.518475
-0.0188623
0.828546
-0.0248962
1.06825
-0.0311009
1.2949
-0.0380686
1.55226
-0.045646
1.85703
-0.0532464
2.21871
-0.0594781
2.64651
-0.062128
3.15126
-0.0592475
3.12505
-0.0529293
2.58624
-0.0451228
2.14471
-0.0371421
1.78122
-0.0296087
1.48081
-0.0227113
1.22994
-0.0161487
1.00727
-0.00949848
0.765443
-0.0033489
0.455132
0.129593
-0.00550465
0.171779
-0.0144098
0.52738
-0.0228423
0.836978
-0.0310702
1.07648
-0.0401027
1.30393
-0.0498103
1.56197
-0.0598059
1.86702
-0.0690967
2.228
-0.0760892
2.65351
-0.0782152
3.15339
-0.0735925
3.12042
-0.0651296
2.57778
-0.0551551
2.13473
-0.0450314
1.7711
-0.0354878
1.47127
-0.0267642
1.22121
-0.0187637
0.999267
-0.0110528
0.757732
-0.00396136
0.448041
0.125632
-0.00782347
0.179602
-0.0203627
0.53992
-0.0316327
0.848248
-0.0418512
1.0867
-0.0526153
1.3147
-0.0644726
1.57383
-0.0767923
1.87934
-0.0880959
2.23931
-0.0961557
2.66157
-0.0977595
3.15499
-0.0912014
3.11387
-0.0802008
2.56678
-0.0676766
2.12221
-0.0553323
1.75876
-0.0440406
1.45997
-0.0339718
1.21114
-0.0244102
0.989706
-0.0144688
0.74779
-0.00506225
0.438634
0.12057
-0.00960054
0.189203
-0.0245897
0.554909
-0.0389493
0.862608
-0.0528866
1.10064
-0.0681495
1.32996
-0.0839936
1.58967
-0.0995517
1.8949
-0.113171
2.25293
-0.122073
2.67047
-0.122683
3.1556
-0.113549
3.10473
-0.0995495
2.55278
-0.0840397
2.1067
-0.0687663
1.74348
-0.0544504
1.44566
-0.0412422
1.19794
-0.0289114
0.977375
-0.0168823
0.735761
-0.00593866
0.427691
0.114631
-0.0147861
0.203989
-0.036455
0.576578
-0.055084
0.881237
-0.0721346
1.11769
-0.0904698
1.34829
-0.109872
1.60907
-0.128665
1.9137
-0.144183
2.26845
-0.153292
2.67958
-0.152135
3.15444
-0.139681
3.09228
-0.121917
2.53501
-0.102644
2.08742
-0.0839017
1.72474
-0.0668708
1.42863
-0.051771
1.18284
-0.0373444
0.962948
-0.022101
0.720518
-0.0076121
0.413202
0.107019
-0.0184716
0.222461
-0.0458418
0.603948
-0.0715437
0.906939
-0.0955681
1.14171
-0.120861
1.37359
-0.145324
1.63353
-0.167373
1.93574
-0.184417
2.28549
-0.193076
2.68823
-0.189151
3.15052
-0.172552
3.07568
-0.150636
2.5131
-0.127516
2.0643
-0.105135
1.70236
-0.0839862
1.40748
-0.0640586
1.16291
-0.0448908
0.943781
-0.0259203
0.701547
-0.00859895
0.39588
0.09842
-0.033515
0.255976
-0.0723327
0.642766
-0.104716
0.939322
-0.135059
1.17206
-0.165229
1.40376
-0.193499
1.66181
-0.217645
1.95989
-0.234599
2.30244
-0.240794
2.69443
-0.23238
3.14211
-0.210294
3.05359
-0.183163
2.48597
-0.155036
2.03618
-0.127971
1.67529
-0.103197
1.3827
-0.0805267
1.14024
-0.0582095
0.921463
-0.0345796
0.677917
-0.0111438
0.372445
0.0872762
-0.046028
0.302004
-0.1076
0.704337
-0.154216
0.985939
-0.193021
1.21086
-0.228434
1.43917
-0.25888
1.69225
-0.282708
1.98372
-0.296832
2.31657
-0.298108
2.69571
-0.283192
3.12719
-0.254551
3.02495
-0.222132
2.45355
-0.189706
2.00375
-0.158842
1.64443
-0.129998
1.35386
-0.102818
1.11306
-0.074774
0.893419
-0.0417923
0.644936
-0.0122705
0.342923
0.0750057
-0.0293814
0.331385
-0.079823
0.754779
-0.126026
1.03214
-0.169708
1.25454
-0.210824
1.48028
-0.250218
1.73165
-0.285363
2.01886
-0.313792
2.345
-0.331711
2.71362
-0.33211
3.12759
-0.311593
3.00443
-0.278493
2.42045
-0.238681
1.96394
-0.196024
1.60177
-0.152601
1.31044
-0.109406
1.06986
-0.0673103
0.851324
-0.0303904
0.608016
-0.00640155
0.318934
0.0686041
-0.00391344
0.335298
-0.029469
0.780335
-0.0641219
1.06679
-0.101933
1.29235
-0.139477
1.51783
-0.174984
1.76715
-0.206776
2.05066
-0.232265
2.37049
-0.247076
2.72844
-0.244536
3.12505
-0.222062
2.98196
-0.188424
2.38681
-0.149824
1.92534
-0.110147
1.5621
-0.0722353
1.27253
-0.0375888
1.03522
-0.00850343
0.822238
0.00841314
0.591099
0.00748469
0.319863
0.0760888
0.00404463
0.331254
-0.0106003
0.79498
-0.0359041
1.0921
-0.0655528
1.322
-0.0962666
1.54854
-0.12649
1.79738
-0.154399
2.07856
-0.176776
2.39286
-0.189153
2.74081
-0.185691
3.12159
-0.164942
2.96121
-0.135784
2.35765
-0.103789
1.89334
-0.0720745
1.53038
-0.0425465
1.243
-0.0168211
1.00949
0.00248971
0.802928
0.0110076
0.582581
0.00720692
0.323663
0.0832957
0.00572615
0.325528
-0.00366188
0.804368
-0.0232849
1.11172
-0.0472262
1.34594
-0.0714959
1.57281
-0.0967988
1.82268
-0.120781
2.10255
-0.140341
2.41242
-0.151332
2.7518
-0.148887
3.11914
-0.13144
2.94376
-0.106844
2.33306
-0.0807522
1.86725
-0.0556265
1.50526
-0.0322518
1.21962
-0.0120045
0.989244
0.00307848
0.787845
0.00835875
0.577301
0.00462354
0.327398
0.0879192
0.00734859
0.318179
0.000620179
0.811096
-0.0169353
1.12928
-0.0368456
1.36585
-0.0575385
1.59351
-0.0792961
1.84444
-0.100184
2.12343
-0.117655
2.4299
-0.127998
2.76215
-0.126626
3.11777
-0.112143
2.92928
-0.0921113
2.31303
-0.0702871
1.84543
-0.0489955
1.48396
-0.0296058
1.20023
-0.0133677
0.973006
-0.00177328
0.77625
0.00281814
0.57271
0.00154716
0.328669
0.0894664
0.006549
0.31163
0.00210882
0.815536
-0.0130674
1.14445
-0.0311913
1.38398
-0.050039
1.61235
-0.0693902
1.86379
-0.0881365
2.14218
-0.104062
2.44582
-0.113905
2.77199
-0.113334
3.1172
-0.100632
2.91658
-0.0821825
2.29458
-0.0629883
1.82623
-0.0450921
1.46607
-0.0292749
1.18442
-0.0161292
0.95986
-0.00697597
0.767097
-0.001772
0.567506
-0.000335642
0.327233
0.0891308
0.00469875
0.306931
0.00197102
0.818264
-0.0112867
1.15771
-0.0280787
1.40077
-0.0459084
1.63018
-0.0639101
1.88179
-0.0813118
2.15958
-0.0963298
2.46084
-0.106389
2.78205
-0.107176
3.11798
-0.096539
2.90594
-0.0805105
2.27855
-0.0628217
1.80854
-0.0464366
1.44968
-0.0320599
1.17004
-0.0200844
0.947885
-0.0113535
0.758366
-0.00549836
0.56165
-0.00151197
0.323247
0.0876188
0.00252681
0.304405
0.000387721
0.820403
-0.0114536
1.16955
-0.0268007
1.41612
-0.0436276
1.64701
-0.0608671
1.89903
-0.0776227
2.17634
-0.0924133
2.47563
-0.102913
2.79255
-0.104333
3.1194
-0.0946196
2.89623
-0.0797124
2.26364
-0.0638913
1.79272
-0.0482476
1.43404
-0.0348976
1.15669
-0.0237273
0.936715
-0.0142618
0.748901
-0.00713867
0.554527
-0.00213944
0.318247
0.0854794
0.000261085
0.304143
-0.00256709
0.823231
-0.0129549
1.17994
-0.026696
1.42986
-0.0424404
1.66275
-0.0591139
1.9157
-0.0756758
2.1929
-0.0906474
2.4906
-0.101821
2.80372
-0.105251
3.12283
-0.0975288
2.88851
-0.0829173
2.24903
-0.0667939
1.7766
-0.0522662
1.41951
-0.0386917
1.14312
-0.0265394
0.924562
-0.0171627
0.739524
-0.00918278
0.546547
-0.00279789
0.311863
0.0826815
-0.000936397
0.30508
-0.00569811
0.827993
-0.0150194
1.18926
-0.0274514
1.44229
-0.0420839
1.67739
-0.0581229
1.93174
-0.0746314
2.20941
-0.0901961
2.50617
-0.102828
2.81635
-0.107995
3.128
-0.101728
2.88224
-0.0890116
2.23631
-0.0732436
1.76083
-0.0567399
1.40301
-0.0423213
1.1287
-0.0303842
0.912625
-0.0194112
0.728551
-0.0103064
0.537443
-0.00335978
0.304916
0.0793217
-0.00291458
0.307994
-0.00789295
0.832971
-0.0168869
1.19826
-0.0285362
1.45394
-0.0423411
1.69119
-0.0578009
1.9472
-0.0742368
2.22584
-0.0905015
2.52243
-0.104421
2.83027
-0.11179
3.13537
-0.107958
2.87841
-0.0950389
2.22339
-0.0787033
1.74449
-0.0627829
1.38709
-0.0483719
1.11429
-0.0351201
0.899373
-0.0234246
0.716855
-0.0126724
0.52669
-0.00407953
0.296323
0.0752421
-0.00397956
0.311974
-0.0092118
0.838203
-0.0180252
1.20707
-0.0293597
1.46527
-0.0427122
1.70454
-0.0577319
1.96222
-0.0740596
2.24217
-0.0908659
2.53924
-0.105993
2.8454
-0.115805
3.14518
-0.114038
2.87664
-0.10311
2.21247
-0.0873197
1.7287
-0.0696092
1.36938
-0.0524639
1.09714
-0.0372063
0.884116
-0.0245492
0.704198
-0.0136964
0.515838
-0.00462219
0.287249
0.07062
-0.00426585
0.31624
-0.010076
0.844014
-0.018724
1.21572
-0.0298276
1.47638
-0.0429013
1.71762
-0.0576258
1.97694
-0.0738619
2.25841
-0.0911916
2.55657
-0.107853
2.86206
-0.120475
3.1578
-0.121835
2.878
-0.111615
2.20225
-0.0942906
1.71138
-0.0763406
1.35143
-0.0592463
1.08005
-0.0452294
0.870099
-0.0311885
0.690157
-0.0163971
0.501046
-0.00529066
0.276142
0.0653293
-0.00423487
0.320475
-0.010409
0.850188
-0.0189455
1.22425
-0.0297767
1.48721
-0.0425874
1.73043
-0.057125
1.99148
-0.0734272
2.27471
-0.0913476
2.57449
-0.109306
2.88002
-0.123854
3.17235
-0.127791
2.88194
-0.120323
2.19478
-0.105777
1.69683
-0.0847872
1.33044
-0.0649337
1.06019
-0.0455058
0.850671
-0.0290193
0.673671
-0.0164653
0.488492
-0.00542916
0.265106
0.0599001
-0.00422959
0.324704
-0.0106761
0.856634
-0.0190312
1.23261
-0.0294681
1.49765
-0.0419441
1.7429
-0.0562997
2.00584
-0.0726602
2.29107
-0.0910151
2.59284
-0.110172
2.89918
-0.127971
3.19015
-0.136424
2.89039
-0.13157
2.18992
-0.115455
1.68072
-0.0959869
1.31097
-0.0732802
1.03749
-0.054039
0.83143
-0.0376879
0.65732
-0.019789
0.470593
-0.00575673
0.251074
0.0541434
-0.00417633
0.328881
-0.0105868
0.863045
-0.0187348
1.24076
-0.0288259
1.50774
-0.0409414
1.75502
-0.0550528
2.01995
-0.0714259
2.30744
-0.0901615
2.61158
-0.110472
2.91949
-0.130391
3.21007
-0.140809
2.90081
-0.138195
2.18731
-0.127107
1.66963
-0.10597
1.28983
-0.0803736
1.01189
-0.0535443
0.804601
-0.0319079
0.635683
-0.0164791
0.455164
-0.00425774
0.238853
0.0498857
-0.00408514
0.332966
-0.0104634
0.869423
-0.0183102
1.2486
-0.0280346
1.51746
-0.0397563
1.76674
-0.0535656
2.03376
-0.0698301
2.32371
-0.0887887
2.63054
-0.110059
2.94076
-0.132107
3.23212
-0.14699
2.91569
-0.14799
2.18831
-0.135655
1.6573
-0.115421
1.2696
-0.089942
0.98641
-0.064037
0.778696
-0.0380612
0.609708
-0.0164591
0.433562
-0.00332777
0.225721
0.0465579
-0.00388958
0.336855
-0.0100722
0.875606
-0.0176615
1.25619
-0.0270288
1.52683
-0.0383426
1.77806
-0.0517898
2.04721
-0.0678651
2.33978
-0.0869652
2.64964
-0.108982
2.96278
-0.132817
3.25595
-0.150647
2.93352
-0.156709
2.19437
-0.151745
1.65233
-0.133149
1.251
-0.104049
0.957311
-0.0634237
0.73807
-0.0230374
0.569321
0.00535695
0.405168
0.0153476
0.215731
0.0619055
-0.00363482
0.34049
-0.00967231
0.881643
-0.0169421
1.26346
-0.0259108
1.5358
-0.0367998
1.78894
-0.0498491
2.06026
-0.0656501
2.35559
-0.0846997
2.66869
-0.107368
2.98544
-0.133276
3.28186
-0.155145
2.95539
-0.165905
2.20513
-0.160171
1.6466
-0.144709
1.23554
-0.115803
0.928405
-0.0778278
0.700094
-0.0258158
0.517309
0.0167334
0.362619
0.0121315
0.220333
0.074037
-0.00334419
0.343834
-0.00911479
0.887414
-0.0160925
1.27044
-0.0246539
1.54436
-0.0351329
1.79942
-0.0477429
2.07287
-0.0631985
2.37104
-0.0820863
2.68757
-0.105036
3.00839
-0.131827
3.30865
-0.154902
2.97847
-0.16884
2.21907
-0.17487
1.65263
-0.165013
1.22568
-0.139865
0.903257
-0.0886793
0.648909
0.00261613
0.426014
0.114575
0.25066
0.152842
0.182065
0.226879
-0.00312948
0.346964
-0.00876937
0.893054
-0.0155914
1.27726
-0.0240564
1.55282
-0.034604
1.80997
-0.0475014
2.08576
-0.0636662
2.38721
-0.0839614
2.70787
-0.10948
3.03391
-0.141239
3.34041
-0.172065
3.00929
-0.194762
2.24177
-0.201476
1.65934
-0.194208
1.21842
-0.174679
0.883728
-0.153138
0.627368
-0.173346
0.446222
-0.375633
0.452947
-0.902632
0.709065
0.883889
-1.55964
-0.00296818
0.349932
-0.00827496
0.89836
-0.0148612
1.28385
-0.0230928
1.56105
-0.0334393
1.82032
-0.0462922
2.09862
-0.062691
2.4036
-0.0836647
2.72884
-0.110757
3.061
-0.145643
3.3753
-0.180727
3.04437
-0.208015
2.26905
-0.235168
1.6865
-0.251293
1.23454
-0.263983
0.896418
-0.339165
0.70255
-0.677843
0.784901
-1.36682
1.14193
-1.98557
1.32781
1.22487
-2.32655
-0.0027528
0.352685
-0.00775618
0.903364
-0.0140462
1.29014
-0.022015
1.56902
-0.0321477
1.83045
-0.0449179
2.11139
-0.0614773
2.42016
-0.0830452
2.75041
-0.111724
3.08968
-0.150115
3.41369
-0.191326
3.08559
-0.22965
2.30738
-0.258728
1.71557
-0.279647
1.25546
-0.368029
0.9848
-0.727188
1.06171
-1.46724
1.52495
-2.06467
1.73936
-2.3155
1.57864
1.34511
-2.43573
-0.00246485
0.35515
-0.00715281
0.908052
-0.0131649
1.29615
-0.0208386
1.5767
-0.0306939
1.84031
-0.0433356
2.12403
-0.0599764
2.4368
-0.0820928
2.77253
-0.112186
3.11978
-0.153664
3.45517
-0.20225
3.13417
-0.245723
2.35085
-0.29612
1.76597
-0.389795
1.34913
-0.687307
1.28231
-1.37909
1.75349
-1.98885
2.13471
-2.23961
1.99012
-2.35933
1.69835
1.41402
-2.42824
-0.00218011
0.35733
-0.00649331
0.912365
-0.0121692
1.30183
-0.0195158
1.58404
-0.0291436
1.84993
-0.0416142
2.1365
-0.0582684
2.45346
-0.0807963
2.79505
-0.112159
3.15114
-0.156795
3.4998
-0.210465
3.18784
-0.265861
2.40625
-0.322979
1.82309
-0.488705
1.51486
-1.03355
1.82716
-1.72969
2.44964
-2.0787
2.48372
-2.23849
2.14991
-2.32697
1.78683
1.48289
-2.39584
-0.00199256
0.359322
-0.00613016
0.916503
-0.0117647
1.30746
-0.0190507
1.59133
-0.0287719
1.85965
-0.0413394
2.14907
-0.0582768
2.4704
-0.0814545
2.81823
-0.114195
3.18388
-0.161851
3.54746
-0.223685
3.24968
-0.283489
2.46605
-0.377075
1.91667
-0.724279
1.86207
-1.42537
2.52825
-1.93142
2.95569
-2.14459
2.69689
-2.25797
2.26329
-2.3383
1.86716
1.54992
-2.40532
-0.00189904
0.361221
-0.00613546
0.920739
-0.0120037
1.31333
-0.0195865
1.59891
-0.0296924
1.86976
-0.04272
2.16209
-0.0602766
2.48795
-0.0844032
2.84236
-0.118832
3.21831
-0.169682
3.59831
-0.233297
3.31329
-0.306301
2.53905
-0.486591
2.09697
-0.979235
2.35471
-1.61406
3.16307
-1.92445
3.26608
-2.08295
2.85538
-2.20443
2.38477
-2.30177
1.96451
1.61739
-2.36925
-0.00171452
0.362936
-0.00605485
0.925079
-0.0122176
1.31949
-0.0201231
1.60682
-0.0305741
1.88021
-0.0440574
2.17558
-0.0622193
2.50611
-0.0872633
2.8674
-0.123181
3.25423
-0.176814
3.65194
-0.247704
3.38418
-0.337168
2.62852
-0.586708
2.34651
-1.18167
2.94968
-1.70662
3.68802
-1.92688
3.48634
-2.08032
3.00882
-2.22055
2.525
-2.34549
2.08945
1.68437
-2.41247
-0.00149675
0.364433
-0.00592145
0.929504
-0.0123246
1.32589
-0.0206058
1.6151
-0.0314665
1.89107
-0.0453948
2.1895
-0.0641128
2.52483
-0.0900127
2.8933
-0.127428
3.29164
-0.183601
3.70811
-0.257607
3.45819
-0.380657
2.75157
-0.714941
2.68079
-1.32315
3.55788
-1.717
4.08187
-1.91038
3.67972
-2.03158
3.13002
-2.14147
2.63489
-2.22314
2.17112
1.682
-2.22078
-0.00115486
0.365587
-0.00556874
0.933918
-0.0122053
1.33253
-0.0209094
1.6238
-0.0321395
1.9023
-0.0465103
2.20388
-0.0658333
2.54416
-0.0925472
2.92002
-0.131259
3.33035
-0.190216
3.76707
-0.270339
3.53831
-0.415612
2.89684
-0.813162
3.07834
-1.37682
4.12155
-1.67183
4.37687
-1.85777
3.86566
-1.97129
3.24354
-1.98668
2.65028
-1.94598
2.13042
1.68792
-1.95189
-0.000810609
0.366398
-0.00519798
0.938305
-0.0119666
1.3393
-0.0210491
1.63289
-0.0324965
1.91375
-0.0469934
2.21837
-0.0663513
2.56351
-0.0930013
2.94667
-0.131635
3.36899
-0.19047
3.8259
-0.274922
3.62276
-0.459314
3.08123
-0.879742
3.49877
-1.34197
4.58378
-1.54542
4.58032
-1.63558
3.95582
-1.6617
3.26966
-1.53395
2.52253
-1.05371
1.65017
0.634213
-0.000295147
0.366693
-0.00424541
0.942255
-0.0112728
1.34633
-0.0208776
1.64249
-0.0328417
1.92571
-0.0481733
2.2337
-0.068799
2.58414
-0.0972555
2.97512
-0.13864
3.41037
-0.202289
3.88955
-0.296938
3.71741
-0.503591
3.28789
-0.977831
3.97301
-1.38764
4.99359
-1.51385
4.70653
-1.53208
3.97405
-1.45442
3.192
-1.23975
2.30787
-0.684148
1.09457
-0.049935
0.000346101
0.366347
-0.0032283
0.94583
-0.0104359
1.35353
-0.0204549
1.65251
-0.032786
1.93804
-0.0487881
2.24971
-0.070485
2.60584
-0.100553
3.00519
-0.144686
3.45451
-0.21387
3.95873
-0.32576
3.8293
-0.58145
3.54358
-1.08476
4.47632
-1.40174
5.31056
-1.48703
4.79182
-1.48205
3.96907
-1.31161
3.02156
-0.84565
1.84191
-0.142978
0.391894
-0.192913
0.00151898
0.364828
-0.000880358
0.948229
-0.00870523
1.36136
-0.0189873
1.66279
-0.0315757
1.95063
-0.0481906
2.26632
-0.0707193
2.62836
-0.101975
3.03645
-0.148367
3.5009
-0.221953
4.03232
-0.341501
3.94885
-0.623991
3.82606
-1.13288
4.98521
-1.36706
5.54475
-1.41519
4.83994
-1.36701
3.92089
-1.10069
2.75523
-0.403143
1.14437
0.0272914
-0.0385406
-0.165621
0.00234734
0.362481
0.000723883
0.949853
-0.00686092
1.36894
-0.0170387
1.67297
-0.0296933
1.96329
-0.0466648
2.28329
-0.0696032
2.6513
-0.101713
3.06856
-0.149586
3.54877
-0.227946
4.11068
-0.367983
4.08889
-0.684831
4.14291
-1.16351
5.46389
-1.32368
5.70492
-1.34702
4.86328
-1.21068
3.78455
-0.801393
2.34595
-0.132967
0.47594
0.0303276
-0.201836
-0.135294
0.00372712
0.358754
0.00310828
0.950472
-0.00351267
1.37557
-0.0132875
1.68274
-0.0258882
1.97589
-0.0430608
2.30047
-0.0659664
2.67421
-0.0982641
3.10086
-0.146057
3.59656
-0.224833
4.18946
-0.372156
4.23621
-0.706464
4.47722
-1.13186
5.88929
-1.24435
5.81741
-1.2397
4.85863
-1.01463
3.55948
-0.462971
1.79429
-0.00681695
0.0197867
0.0235991
-0.232252
-0.111695
0.00504271
0.353711
0.00584942
0.949665
0.00018789
1.38123
-0.00872367
1.69166
-0.0208842
1.98805
-0.0374897
2.31707
-0.0591207
2.69584
-0.0899616
3.1317
-0.135968
3.64257
-0.2152
4.26869
-0.373817
4.39483
-0.712162
4.81557
-1.05179
6.22891
-1.13952
5.90514
-1.11923
4.83834
-0.84595
3.2862
-0.231028
1.17937
-0.0243356
-0.186906
-0.00231154
-0.254276
-0.114006
0.00727984
0.346431
0.0104876
0.946457
0.0068977
1.38482
-0.000668544
1.69922
-0.0129884
2.00037
-0.0281432
2.33223
-0.0483111
2.71601
-0.0789087
3.16229
-0.124629
3.68829
-0.201842
4.3459
-0.363363
4.55635
-0.677126
5.12933
-0.936769
6.48856
-1.00333
5.9717
-0.93831
4.77332
-0.617089
2.96498
-0.0653759
0.627654
-0.00964385
-0.242638
0.00296863
-0.266888
-0.111037
0.00949982
0.336931
0.0153491
0.940608
0.0134002
1.38677
0.006848
1.70577
-0.00339954
2.01062
-0.0155743
2.3444
-0.0334385
2.73387
-0.0616119
3.19047
-0.103707
3.73038
-0.164608
4.4068
-0.314341
4.70608
-0.582656
5.39764
-0.770385
6.67629
-0.83953
6.04084
-0.8242
4.75799
-0.530189
2.67097
-0.169073
0.266538
-0.122187
-0.289524
-0.0507932
-0.338282
-0.161831
0.0126088
0.324323
0.0222772
0.930939
0.0229775
1.38607
0.0189537
1.7098
0.0124761
2.01709
0.00282332
2.35405
-0.0113194
2.74801
-0.0312055
3.21035
-0.0620787
3.76126
-0.107189
4.45192
-0.240344
4.83924
-0.439261
5.59656
-0.566865
6.80389
-0.640573
6.11455
-0.694004
4.81142
-0.615227
2.59219
-0.559027
0.210338
-0.409641
-0.43891
-0.199058
-0.548865
-0.360889
0.0152168
0.309106
0.0289498
0.917206
0.0338475
1.38117
0.0339644
1.70968
0.0307392
2.02032
0.0263013
2.35849
0.0184896
2.75583
0.00388104
3.22496
-0.0189976
3.78414
-0.0640257
4.49694
-0.147434
4.92264
-0.215255
5.66438
-0.281695
6.87033
-0.324107
6.15696
-0.33966
4.82697
-0.419666
2.6722
-0.643149
0.433821
-0.543351
-0.538708
-0.281624
-0.810592
-0.642513
0.0190081
0.290098
0.0385864
0.897628
0.0486854
1.37107
0.0534676
1.7049
0.0551047
2.01868
0.0572054
2.35639
0.0561831
2.75685
0.0470796
3.23407
0.0251571
3.80606
-0.0262595
4.54836
-0.0197008
4.91609
0.0547065
5.58997
0.135082
6.78995
0.27106
6.02099
0.397788
4.70025
0.235077
2.83491
-0.165408
0.834306
-0.345946
-0.358169
-0.223181
-0.933357
-0.865694
0.0216083
0.268489
0.0468745
0.872362
0.0636331
1.35431
0.0751042
1.69343
0.0842972
2.00949
0.0944079
2.34628
0.10458
2.74668
0.107952
3.23069
0.0966458
3.81736
0.0501431
4.59486
0.120813
4.84542
0.40063
5.31016
0.699277
6.49131
1.02393
5.69634
1.27799
4.44618
1.14503
2.96787
0.706786
1.27255
0.27561
0.0730064
0.0684096
-0.726157
-0.797284
0.0247101
0.243779
0.0578989
0.839173
0.0825879
1.32962
0.102079
1.67394
0.121124
1.99044
0.143286
2.32412
0.169652
2.72031
0.193932
3.20641
0.212326
3.79897
0.187518
4.61967
0.23377
4.79916
0.63639
4.90754
1.06617
6.06152
1.36838
5.39414
1.53843
4.27612
1.48945
3.01686
1.11806
1.64394
0.735911
0.455153
0.311139
-0.301386
-0.486145
0.0257678
0.218011
0.0648414
0.800099
0.0991721
1.29529
0.130175
1.64293
0.162561
1.95806
0.201609
2.28507
0.24815
2.67377
0.305692
3.14887
0.37384
3.73082
0.435689
4.55782
0.483742
4.75111
0.750981
4.6403
1.22827
5.58424
1.50064
5.12176
1.63544
4.14133
1.56542
3.08687
1.22162
1.98774
0.784014
0.89276
0.339432
0.143196
-0.146713
0.0281383
0.189873
0.0731761
0.755062
0.117208
1.25126
0.16111
1.59903
0.208554
1.91061
0.266578
2.22705
0.341321
2.59903
0.448752
3.04144
0.617148
3.56243
0.815253
4.35972
0.832655
4.73371
0.841805
4.63115
1.16345
5.26259
1.30207
4.98313
1.34148
4.10192
1.26214
3.16622
1.03482
2.21506
0.670525
1.25705
0.288502
0.525218
0.141789
0.0293065
0.160567
0.0775901
0.706778
0.130392
1.19846
0.187019
1.54241
0.252013
1.84562
0.333317
2.14574
0.446966
2.48538
0.626832
2.86157
0.906718
3.28254
1.17628
4.09015
1.16999
4.74
0.956606
4.84453
1.00937
5.20983
1.04232
4.95018
1.04166
4.10259
0.944421
3.26345
0.72166
2.43782
0.473814
1.5049
0.199577
0.799456
0.341366
0.0334623
0.127104
0.0807512
0.659489
0.139775
1.13943
0.209073
1.47311
0.290196
1.7645
0.395272
2.04067
0.548467
2.33218
0.791871
2.61817
1.12981
2.9446
1.47549
3.74447
1.52022
4.69527
1.16327
5.20149
1.03309
5.34001
0.965767
5.0175
0.793972
4.27438
0.561964
3.49546
0.393382
2.60641
0.287454
1.61082
0.10807
0.97884
0.449436
0.0422167
0.0848876
0.0933544
0.608351
0.152554
1.08023
0.223661
1.402
0.311809
1.67635
0.427188
1.92529
0.58816
2.17121
0.822869
2.38346
1.13393
2.63354
1.52372
3.35468
1.61904
4.59995
1.23435
5.58618
0.893524
5.68084
0.59032
5.32071
0.271138
4.59356
0.121335
3.64526
0.161228
2.56651
0.130851
1.6412
0.0339842
1.07571
0.48342
0.0470982
0.0377894
0.116698
0.538751
0.175617
1.02131
0.235936
1.34168
0.30926
1.60302
0.393888
1.84066
0.494684
2.07041
0.605892
2.27225
0.727865
2.51156
0.857529
3.22502
0.838483
4.619
0.434233
5.99043
0.0212246
6.09385
-0.188585
5.53052
-0.225492
4.63047
-0.109223
3.52899
0.0578739
2.39942
0.0444468
1.65463
0.0010467
1.11911
0.484466
0.0264663
0.0113232
0.0817051
0.483513
0.125106
0.977914
0.162839
1.30395
0.200042
1.56582
0.223083
1.81762
0.222153
2.07134
0.173207
2.3212
0.0699262
2.61484
-0.110472
3.40542
-0.305114
4.81364
-0.559615
6.24493
-0.620388
6.15462
-0.550682
5.46081
-0.326295
4.40608
-0.108909
3.31161
0.00823337
2.28227
0.00982832
1.65303
-0.00521065
1.13415
0.479256
-0.00491829
0.0162415
0.00602453
0.47257
0.0112436
0.972694
0.0115043
1.30369
0.00410621
1.57322
-0.0224132
1.84414
-0.0887126
2.13764
-0.218139
2.45063
-0.440146
2.83685
-0.741867
3.70714
-1.04319
5.11496
-1.13937
6.34111
-1.0165
6.03176
-0.780498
5.2248
-0.416229
4.04181
-0.140779
3.03616
-0.0430364
2.18453
-0.0288309
1.63883
-0.0220329
1.12735
0.457223
-0.0238931
0.0401346
-0.0418953
0.490572
-0.0638251
0.994624
-0.0926186
1.33248
-0.134373
1.61497
-0.201699
1.91146
-0.314438
2.25038
-0.500803
2.63699
-0.790955
3.127
-1.14892
4.0651
-1.41963
5.38567
-1.34116
6.26263
-1.06941
5.76001
-0.70409
4.85949
-0.345366
3.68309
-0.120578
2.81137
-0.0551424
2.1191
-0.043919
1.6276
-0.0292449
1.11267
0.427978
-0.0332781
0.0734127
-0.068707
0.526001
-0.10393
1.02985
-0.151277
1.37983
-0.216433
1.68013
-0.308268
2.0033
-0.444915
2.38703
-0.653438
2.84551
-0.961014
3.43458
-1.31454
4.41863
-1.47057
5.5417
-1.26486
6.05692
-0.910548
5.4057
-0.514205
4.46314
-0.243325
3.41221
-0.0970711
2.66512
-0.0611162
2.08314
-0.0527432
1.61923
-0.0323029
1.09223
0.395675
-0.0354474
0.10886
-0.0796994
0.570253
-0.1196
1.06975
-0.17313
1.43336
-0.248093
1.75509
-0.350071