/*--------------------------------*- C++ -*----------------------------------*\
| =========                 |                                                 |
| \\      /  F ield         | OpenFOAM: The Open Source CFD Toolbox           |
|  \\    /   O peration     | Version:  v2012                                 |
|   \\  /    A nd           | Website:  www.openfoam.com                      |
|    \\/     M anipulation  |                                                 |
\*---------------------------------------------------------------------------*/
FoamFile
{
    version     2.0;
    format      ascii;
    class       volVectorField;
    location    "15";
    object      U;
}
// * * * * * * * * * * * * * * * * * * * * * * * * * * * * * * * * * * * * * //

dimensions      [0 1 -1 0 0 0 0];


internalField   nonuniform List<vector> 
2200
(
(0.878441 -0.0302731 0)
(1.00564 -0.0512674 0)
(1.00303 -0.0352215 0)
(1.00011 -0.0242088 0)
(0.999529 -0.0163018 0)
(0.999633 -0.0103327 0)
(0.999923 -0.006465 0)
(1.0002 -0.00390409 0)
(1.00024 -0.0021078 0)
(1.00014 -0.000680317 0)
(1.00008 0.000834983 0)
(1.00026 0.00233376 0)
(1.00022 0.00409718 0)
(0.999913 0.00661668 0)
(0.999615 0.0104209 0)
(0.999513 0.0163689 0)
(1.00011 0.0242629 0)
(1.00306 0.035271 0)
(1.00565 0.0512799 0)
(0.878438 0.0302916 0)
(0.713164 -0.0327846 0)
(0.996871 -0.0626408 0)
(1.03399 -0.0559045 0)
(1.02555 -0.0462869 0)
(1.01667 -0.0360358 0)
(1.00993 -0.0261096 0)
(1.0056 -0.0181362 0)
(1.00318 -0.0117199 0)
(1.00201 -0.00636159 0)
(1.00195 -0.00183728 0)
(1.00186 0.00248405 0)
(1.00196 0.0068737 0)
(1.00307 0.0121342 0)
(1.00546 0.018458 0)
(1.00982 0.0264422 0)
(1.01659 0.0363221 0)
(1.02546 0.0465185 0)
(1.03384 0.0560535 0)
(0.996754 0.0627855 0)
(0.713021 0.032812 0)
(0.535949 -0.0238618 0)
(0.970646 -0.0565818 0)
(1.05568 -0.0540226 0)
(1.05157 -0.0481984 0)
(1.03609 -0.0401419 0)
(1.0247 -0.0321894 0)
(1.01627 -0.0238432 0)
(1.01074 -0.0156685 0)
(1.00759 -0.00856583 0)
(1.0061 -0.00232387 0)
(1.0061 0.00325457 0)
(1.00747 0.00948142 0)
(1.01056 0.0164822 0)
(1.01615 0.0246516 0)
(1.02456 0.032839 0)
(1.03593 0.0406784 0)
(1.05138 0.0486203 0)
(1.05547 0.0543843 0)
(0.970206 0.056785 0)
(0.535315 0.0239259 0)
(0.395202 -0.0128838 0)
(0.913814 -0.0451544 0)
(1.05868 -0.0453744 0)
(1.0689 -0.0419308 0)
(1.05374 -0.0357237 0)
(1.03882 -0.0297386 0)
(1.02731 -0.0234423 0)
(1.01892 -0.0166468 0)
(1.01366 -0.00961498 0)
(1.01109 -0.00262908 0)
(1.01093 0.00407753 0)
(1.01336 0.0110239 0)
(1.01859 0.0179308 0)
(1.02686 0.0244578 0)
(1.0383 0.0306194 0)
(1.05317 0.0364269 0)
(1.06827 0.0424835 0)
(1.0579 0.0457745 0)
(0.912762 0.0453929 0)
(0.393997 0.0129462 0)
(0.315894 -0.00379151 0)
(0.853172 -0.0305222 0)
(1.05221 -0.0370982 0)
(1.08042 -0.0352484 0)
(1.06798 -0.0300201 0)
(1.05143 -0.0248531 0)
(1.03786 -0.0200287 0)
(1.02738 -0.014956 0)
(1.02015 -0.00921931 0)
(1.01631 -0.00260158 0)
(1.0162 0.00458093 0)
(1.01985 0.0109416 0)
(1.0268 0.016417 0)
(1.03716 0.0213546 0)
(1.05066 0.0259111 0)
(1.06715 0.0309377 0)
(1.07951 0.0360198 0)
(1.05102 0.037689 0)
(0.851392 0.030829 0)
(0.31412 0.00385264 0)
(0.276078 0.000476584 0)
(0.798628 -0.0179125 0)
(1.03786 -0.0284075 0)
(1.08547 -0.0287731 0)
(1.0777 -0.0251533 0)
(1.06068 -0.0203405 0)
(1.04739 -0.0160139 0)
(1.0369 -0.011823 0)
(1.02883 -0.00715293 0)
(1.02425 -0.00181252 0)
(1.02404 0.00447995 0)
(1.02826 0.00951393 0)
(1.03607 0.0139008 0)
(1.0464 0.0177851 0)
(1.05959 0.0219307 0)
(1.07658 0.0264661 0)
(1.08413 0.0298468 0)
(1.03588 0.0291985 0)
(0.795665 0.0182723 0)
(0.273614 -0.000393766 0)
(0.257322 0.00155775 0)
(0.754934 -0.00883056 0)
(1.01962 -0.0194213 0)
(1.08495 -0.0211813 0)
(1.08221 -0.0196251 0)
(1.06602 -0.016323 0)
(1.05229 -0.0132078 0)
(1.04165 -0.00968834 0)
(1.03391 -0.005472 0)
(1.02977 -0.000919832 0)
(1.02941 0.00430102 0)
(1.03298 0.0086956 0)
(1.04033 0.0126036 0)
(1.05071 0.0157186 0)
(1.06428 0.0182893 0)
(1.08026 0.0212196 0)
(1.08266 0.0223979 0)
(1.01647 0.0202384 0)
(0.750617 0.0091997 0)
(0.254071 -0.00144671 0)
(0.251884 0.0013642 0)
(0.726691 -0.00255906 0)
(1.00252 -0.0103347 0)
(1.08015 -0.0125914 0)
(1.08158 -0.0130117 0)
(1.06662 -0.0120416 0)
(1.05296 -0.0107 0)
(1.04268 -0.00804949 0)
(1.03546 -0.00442882 0)
(1.03168 -0.000140547 0)
(1.03123 0.00434895 0)
(1.0343 0.00836731 0)
(1.04098 0.0114834 0)
(1.0507 0.013345 0)
(1.06416 0.0142822 0)
(1.07883 0.0148016 0)
(1.07686 0.0139578 0)
(0.998135 0.0112363 0)
(0.72124 0.00296741 0)
(0.247651 -0.00124752 0)
(0.252621 0.000992606 0)
(0.713815 0.00042863 0)
(0.990091 -0.00389461 0)
(1.07414 -0.00623852 0)
(1.079 -0.00767545 0)
(1.06618 -0.00836682 0)
(1.05346 -0.00815721 0)
(1.04406 -0.00635301 0)
(1.03727 -0.00345391 0)
(1.03349 0.000571539 0)
(1.03293 0.00464627 0)
(1.03578 0.00824471 0)
(1.04197 0.010563 0)
(1.05081 0.011831 0)
(1.06311 0.0113892 0)
(1.0754 0.0100456 0)
(1.06988 0.00807443 0)
(0.984463 0.00513784 0)
(0.706622 0.000175777 0)
(0.247499 -0.000816782 0)
(0.255538 0.000416083 0)
(0.709947 0.000719494 0)
(0.983163 -0.0014773 0)
(1.06978 -0.00377439 0)
(1.07729 -0.0054005 0)
(1.06713 -0.00642589 0)
(1.05643 -0.00626579 0)
(1.0479 -0.00481275 0)
(1.04153 -0.00233252 0)
(1.03761 0.00139693 0)
(1.03668 0.00514834 0)
(1.03908 0.00843723 0)
(1.04444 0.0103333 0)
(1.05237 0.0110527 0)
(1.06242 0.0103103 0)
(1.07222 0.00852247 0)
(1.06396 0.00616724 0)
(0.975658 0.00305708 0)
(0.700777 -1.40278e-05 0)
(0.248723 -0.000193693 0)
(0.256997 1.45434e-05 0)
(0.708992 0.000479776 0)
(0.979228 -0.000782936 0)
(1.06591 -0.0030284 0)
(1.0751 -0.00472357 0)
(1.06713 -0.00558683 0)
(1.05863 -0.00531141 0)
(1.05164 -0.00362215 0)
(1.04626 -0.00104805 0)
(1.04264 0.00261828 0)
(1.04142 0.00614292 0)
(1.04297 0.00912532 0)
(1.04678 0.010639 0)
(1.05236 0.0110701 0)
(1.06105 0.010395 0)
(1.06833 0.00850741 0)
(1.058 0.00593182 0)
(0.968831 0.0027413 0)
(0.697087 0.000523325 0)
(0.24849 7.92454e-05 0)
(0.257992 0.000123589 0)
(0.70906 0.000614872 0)
(0.974914 5.06938e-05 0)
(1.06128 -0.00192647 0)
(1.07183 -0.00358241 0)
(1.0661 -0.00464889 0)
(1.0589 -0.00412728 0)
(1.05292 -0.0024425 0)
(1.04814 0.000241164 0)
(1.04472 0.00382722 0)
(1.04341 0.00724954 0)
(1.04431 0.00999979 0)
(1.04702 0.0111292 0)
(1.05185 0.0112813 0)
(1.05815 0.0103822 0)
(1.06291 0.00813914 0)
(1.05094 0.00533687 0)
(0.962157 0.00227939 0)
(0.69339 0.000583142 0)
(0.247159 0.000121793 0)
(0.259664 0.000319224 0)
(0.709899 0.000910225 0)
(0.972364 0.00124693 0)
(1.05706 -9.12287e-05 0)
(1.06872 -0.0013493 0)
(1.06489 -0.00224202 0)
(1.05926 -0.00184188 0)
(1.0541 -0.000408798 0)
(1.04964 0.00203378 0)
(1.0461 0.00520707 0)
(1.04439 0.00831152 0)
(1.04479 0.0105275 0)
(1.0469 0.0113412 0)
(1.05042 0.0111751 0)
(1.05453 0.00978707 0)
(1.05718 0.00738285 0)
(1.04384 0.00456631 0)
(0.956027 0.00182825 0)
(0.69018 0.000509359 0)
(0.245873 0.000121879 0)
(0.26197 0.000302747 0)
(0.71211 0.00111317 0)
(0.972304 0.00192859 0)
(1.05483 0.0012245 0)
(1.06736 0.000583675 0)
(1.0651 0.000141735 0)
(1.06095 0.000768304 0)
(1.05667 0.00217789 0)
(1.05254 0.00445008 0)
(1.04879 0.00721576 0)
(1.04641 0.00983831 0)
(1.04597 0.0113269 0)
(1.04687 0.0117023 0)
(1.04911 0.0107967 0)
(1.05154 0.00913574 0)
(1.05237 0.00679522 0)
(1.03792 0.00424591 0)
(0.951064 0.00191817 0)
(0.687429 0.000712798 0)
(0.244582 0.000189369 0)
(0.26482 0.000309136 0)
(0.716078 0.00139118 0)
(0.973198 0.00234967 0)
(1.05445 0.00258751 0)
(1.06696 0.00251079 0)
(1.06579 0.00273498 0)
(1.06274 0.00360296 0)
(1.05919 0.00508431 0)
(1.05532 0.00721389 0)
(1.05138 0.00963244 0)
(1.04822 0.0116815 0)
(1.04668 0.0124805 0)
(1.04644 0.0122118 0)
(1.04733 0.0109571 0)
(1.04841 0.0091552 0)
(1.04795 0.00690021 0)
(1.03278 0.00459609 0)
(0.946428 0.00248225 0)
(0.683975 0.00110687 0)
(0.242538 0.000290619 0)
(0.267722 0.000360594 0)
(0.719821 0.00155106 0)
(0.975274 0.00282959 0)
(1.05547 0.00342749 0)
(1.06803 0.00408246 0)
(1.06725 0.00498377 0)
(1.06462 0.00644238 0)
(1.06132 0.00831243 0)
(1.05742 0.0105511 0)
(1.05308 0.012769 0)
(1.04918 0.0142167 0)
(1.04657 0.0143304 0)
(1.04543 0.0132404 0)
(1.045 0.0116666 0)
(1.04507 0.00947927 0)
(1.04369 0.00713946 0)
(1.02802 0.00490055 0)
(0.941869 0.0029075 0)
(0.679968 0.00137469 0)
(0.239883 0.000341063 0)
(0.271972 0.000531173 0)
(0.7261 0.0021189 0)
(0.979357 0.0040551 0)
(1.05763 0.00543532 0)
(1.07004 0.00667203 0)
(1.06953 0.0080989 0)
(1.06704 0.009854 0)
(1.06365 0.0119633 0)
(1.05935 0.014256 0)
(1.05422 0.0163008 0)
(1.0492 0.0172179 0)
(1.04534 0.0166663 0)
(1.04308 0.014991 0)
(1.04173 0.0129142 0)
(1.04096 0.0105086 0)
(1.03896 0.00811912 0)
(1.02291 0.00583566 0)
(0.936536 0.00368573 0)
(0.674587 0.0017401 0)
(0.236398 0.000424711 0)
(0.276618 0.000672983 0)
(0.732166 0.00254664 0)
(0.984227 0.00488929 0)
(1.06152 0.00675998 0)
(1.07345 0.00882592 0)
(1.07278 0.011094 0)
(1.07008 0.0137088 0)
(1.06633 0.0164189 0)
(1.06137 0.0190343 0)
(1.05521 0.0210112 0)
(1.04891 0.0214064 0)
(1.04387 0.0200768 0)
(1.04059 0.017719 0)
(1.03844 0.0149039 0)
(1.03699 0.0119522 0)
(1.03439 0.00913485 0)
(1.01773 0.00653013 0)
(0.930675 0.00420485 0)
(0.668549 0.00204796 0)
(0.232406 0.000499894 0)
(0.283919 0.000895488 0)
(0.742652 0.00357334 0)
(0.99186 0.00681502 0)
(1.06695 0.00955946 0)
(1.07836 0.0120251 0)
(1.07746 0.0149429 0)
(1.07435 0.0180555 0)
(1.06988 0.0213916 0)
(1.06388 0.0244719 0)
(1.05627 0.0265373 0)
(1.04827 0.026528 0)
(1.04173 0.0244243 0)
(1.03718 0.021314 0)
(1.03402 0.017836 0)
(1.03179 0.0144689 0)
(1.02867 0.0113266 0)
(1.01157 0.00844172 0)
(0.923792 0.0056058 0)
(0.660842 0.00267634 0)
(0.227209 0.000635299 0)
(0.291757 0.00119067 0)
(0.753255 0.00422581 0)
(1.00049 0.0081741 0)
(1.07413 0.0116127 0)
(1.08477 0.0154147 0)
(1.08331 0.0194535 0)
(1.0794 0.023728 0)
(1.07384 0.0279251 0)
(1.06634 0.0315368 0)
(1.05684 0.0336806 0)
(1.0468 0.0331687 0)
(1.0386 0.0301801 0)
(1.03282 0.0261319 0)
(1.02882 0.0217332 0)
(1.02602 0.0174602 0)
(1.02236 0.0135063 0)
(1.00426 0.00982536 0)
(0.9147 0.00646428 0)
(0.651021 0.00315083 0)
(0.220977 0.000768425 0)
(0.304128 0.00156489 0)
(0.769858 0.00614699 0)
(1.01307 0.0113916 0)
(1.08363 0.0160432 0)
(1.09323 0.0202374 0)
(1.09089 0.0253142 0)
(1.08588 0.0305492 0)
(1.07882 0.0357103 0)
(1.0694 0.0400702 0)
(1.05757 0.0423376 0)
(1.04512 0.0412841 0)
(1.03493 0.0373051 0)
(1.02763 0.0320998 0)
(1.0225 0.0266384 0)
(1.01888 0.0215013 0)
(1.01457 0.0168396 0)
(0.995834 0.0126868 0)
(0.905155 0.00852551 0)
(0.640062 0.00408586 0)
(0.213283 0.000934711 0)
(0.318096 0.00218709 0)
(0.789028 0.00719882 0)
(1.02814 0.013953 0)
(1.09594 0.0198041 0)
(1.10432 0.0261384 0)
(1.10062 0.0329777 0)
(1.09392 0.039658 0)
(1.0846 0.046131 0)
(1.07252 0.0511834 0)
(1.05764 0.0534653 0)
(1.04221 0.0516079 0)
(1.02963 0.0463638 0)
(1.02061 0.039842 0)
(1.01426 0.0330993 0)
(1.00978 0.0267049 0)
(1.0047 0.0207754 0)
(0.984315 0.0151411 0)
(0.890456 0.00995385 0)
(0.623916 0.00475345 0)
(0.203583 0.00113537 0)
(0.339509 0.00313165 0)
(0.815247 0.0113884 0)
(1.0484 0.0198995 0)
(1.11157 0.0276288 0)
(1.11812 0.0348366 0)
(1.11257 0.0432958 0)
(1.10345 0.0516163 0)
(1.09134 0.0591934 0)
(1.07595 0.0647581 0)
(1.05755 0.0667409 0)
(1.03878 0.0637614 0)
(1.02362 0.0569479 0)
(1.01275 0.0487438 0)
(1.00508 0.0404205 0)
(0.999582 0.0325559 0)
(0.993545 0.0255731 0)
(0.972048 0.0193618 0)
(0.876594 0.0130204 0)
(0.60835 0.00623027 0)
(0.192534 0.00136037 0)
(0.368557 0.00433299 0)
(0.852184 0.0135029 0)
(1.07466 0.0260233 0)
(1.1317 0.035709 0)
(1.13616 0.0468025 0)
(1.12726 0.0575978 0)
(1.11479 0.0676832 0)
(1.09878 0.0763909 0)
(1.0793 0.0822878 0)
(1.05666 0.0835522 0)
(1.03398 0.0790349 0)
(1.01573 0.0703679 0)
(1.00254 0.0603819 0)
(0.993093 0.050392 0)
(0.986254 0.0410143 0)
(0.97892 0.0320691 0)
(0.954611 0.0235207 0)
(0.853266 0.0154461 0)
(0.582001 0.00708316 0)
(0.177412 0.00153988 0)
(0.404383 0.00854924 0)
(0.895217 0.0236372 0)
(1.10884 0.0381636 0)
(1.15805 0.0513337 0)
(1.15771 0.0649665 0)
(1.14449 0.0775852 0)
(1.12733 0.0891825 0)
(1.10643 0.0984197 0)
(1.08206 0.103703 0)
(1.05453 0.103514 0)
(1.02761 0.0968133 0)
(1.00616 0.0857487 0)
(0.990691 0.0735257 0)
(0.979514 0.061409 0)
(0.971143 0.0499559 0)
(0.962208 0.0397182 0)
(0.935766 0.0300322 0)
(0.832864 0.0202208 0)
(0.560584 0.00966256 0)
(0.163766 0.00168417 0)
(0.489789 0.012117 0)
(0.968604 0.0330786 0)
(1.15392 0.0574257 0)
(1.18995 0.0739886 0)
(1.18342 0.0914373 2.79065e-35)
(1.16357 0.10591 -3.011e-35)
(1.14041 0.117951 0)
(1.11379 0.126401 0)
(1.08378 0.130116 0)
(1.05104 0.127566 0)
(1.0197 0.117941 0)
(0.994865 0.104123 0)
(0.976736 0.0896291 0)
(0.963385 0.0757501 0)
(0.953168 0.0627919 0)
(0.941922 0.0503878 0)
(0.910713 0.0384655 0)
(0.796093 0.0258653 0)
(0.51219 0.0109796 0)
(0.137133 0.00158598 0)
(0.552401 0.0275194 -1.20296e-20)
(1.05185 0.0580467 8.37069e-21)
(1.20421 0.0895623 0)
(1.2258 0.110079 -1.26655e-21)
(1.20961 0.13045 1.02607e-21)
(1.18249 0.144146 3.1767e-35)
(1.15281 0.154826 0)
(1.11973 0.161655 3.8642e-21)
(1.08346 0.163245 -1.42269e-20)
(1.04475 0.157795 3.21792e-21)
(1.00808 0.145105 0)
(0.978933 0.128555 -1.12049e-20)
(0.957301 0.111725 -1.41702e-20)
(0.940879 0.09551 2.49579e-20)
(0.927685 0.0804003 -2.01428e-20)
(0.912736 0.0663718 0)
(0.874122 0.0514209 -7.84857e-21)
(0.747348 0.0352893 0)
(0.468777 0.0195432 -4.24173e-20)
(0.119994 0.00319017 5.04005e-20)
(0.574226 0.0540656 2.08012e-22)
(1.0974 0.103938 -5.84611e-20)
(1.24586 0.141969 1.37386e-20)
(1.25847 0.160092 2.44935e-20)
(1.23322 0.178562 3.01273e-21)
(1.19939 0.189778 -4.14564e-21)
(1.16286 0.198976 0)
(1.12301 0.203999 0)
(1.0804 0.20327 2.20464e-20)
(1.03538 0.195259 0)
(0.992852 0.180001 3.79197e-20)
(0.958625 0.161262 1.20209e-20)
(0.932453 0.142959 3.96046e-22)
(0.911839 0.126046 -2.81056e-20)
(0.894602 0.110377 0)
(0.875792 0.0961447 0)
(0.836082 0.0819869 -1.33703e-19)
(0.71852 0.0641294 3.37049e-19)
(0.457525 0.0366646 -2.00374e-19)
(0.122449 0.0118018 -2.39524e-19)
(0.575224 0.0851988 9.25109e-20)
(1.12423 0.163698 -2.73424e-20)
(1.27666 0.207227 -7.68664e-21)
(1.28483 0.220922 -4.60468e-20)
(1.25269 0.234731 1.35774e-20)
(1.21252 0.241977 1.66059e-20)
(1.16949 0.248242 -1.30374e-21)
(1.12354 0.25009 0)
(1.07506 0.246163 -4.50642e-20)
(1.0239 0.235121 5.37348e-20)
(0.975555 0.217133 -1.03879e-19)
(0.936337 0.196858 5.11114e-20)
(0.906225 0.178133 -3.88014e-20)
(0.882199 0.161458 8.45406e-20)
(0.86198 0.146929 0)
(0.841107 0.133172 -3.36674e-20)
(0.802557 0.119857 0)
(0.695341 0.0986684 1.94479e-19)
(0.456839 0.0627539 -4.61753e-19)
(0.136303 0.020304 2.90194e-19)
(0.560303 0.115997 -4.23752e-19)
(1.13594 0.224789 1.6981e-19)
(1.2954 0.27717 2.74426e-20)
(1.30268 0.286178 0)
(1.26572 0.295594 2.71739e-20)
(1.22061 0.298673 -3.05395e-20)
(1.17237 0.300848 1.65101e-21)
(1.12137 0.298692 0)
(1.06754 0.291186 3.16481e-20)
(1.01105 0.276973 -3.66393e-20)
(0.958084 0.256491 9.11686e-20)
(0.915152 0.234593 0)
(0.8816 0.214952 -8.13854e-20)
(0.854807 0.198056 4.47415e-20)
(0.833115 0.18395 1.23084e-19)
(0.81235 0.170885 -1.08205e-19)
(0.77667 0.156509 1.80721e-19)
(0.680432 0.133379 -4.02652e-19)
(0.459982 0.0887192 2.56191e-19)
(0.145613 0.0298295 -3.22465e-19)
(0.540126 0.14068 2.56695e-19)
(1.13474 0.281008 -1.89013e-19)
(1.30431 0.34558 8.60298e-20)
(1.31239 0.351901 -1.21017e-19)
(1.27182 0.358076 8.38943e-20)
(1.22336 0.357026 -1.54485e-20)
(1.17135 0.354935 3.75356e-21)
(1.11621 0.348628 -1.47111e-20)
(1.05767 0.337437 -3.06631e-20)
(0.996379 0.319678 -7.824e-20)
(0.938623 0.295892 -1.96558e-19)
(0.892024 0.272024 -6.74063e-20)
(0.857519 0.251825 2.83854e-21)
(0.830975 0.234334 -1.61489e-19)
(0.809166 0.219646 -6.25263e-21)
(0.789106 0.207398 1.58566e-19)
(0.756672 0.192033 -4.9493e-20)
(0.668786 0.167732 -2.91905e-20)
(0.458891 0.113427 0)
(0.149 0.0384606 6.88049e-19)
(0.519906 0.163459 0)
(1.12551 0.333344 5.75038e-20)
(1.30558 0.410178 0)
(1.31498 0.41565 -1.20692e-20)
(1.27186 0.419874 -9.98026e-20)
(1.22134 0.41503 2.64849e-20)
(1.16666 0.408984 -5.90619e-21)
(1.10828 0.398723 2.86261e-20)
(1.0461 0.38379 -1.89023e-20)
(0.981538 0.362214 3.32434e-20)
(0.921824 0.335466 1.05937e-19)
(0.874979 0.309349 1.49683e-19)
(0.838587 0.286895 -9.40568e-20)
(0.810026 0.268412 1.74993e-19)
(0.787926 0.252853 -1.4094e-19)
(0.768069 0.241311 0)
(0.737922 0.224703 -3.79669e-19)
(0.65505 0.199 5.10369e-19)
(0.45353 0.135174 3.88458e-20)
(0.147921 0.0457456 -7.24462e-19)
(0.502466 0.18454 -5.99206e-21)
(1.11391 0.383243 -1.50229e-19)
(1.30143 0.471505 -4.56299e-19)
(1.31217 0.476554 2.5543e-19)
(1.2672 0.47938 -6.10161e-20)
(1.21549 0.471286 3.61388e-20)
(1.15899 0.461841 -2.56928e-20)
(1.09815 0.448032 2.97745e-21)
(1.03332 0.429581 -6.21215e-20)
(0.965811 0.404429 1.11122e-21)
(0.902357 0.374054 -1.15121e-19)
(0.851508 0.344693 -1.58945e-19)
(0.81552 0.320932 1.06495e-19)
(0.788874 0.301261 -6.28482e-20)
(0.767012 0.285118 1.53501e-19)
(0.747397 0.272371 0)
(0.719522 0.255474 -2.35314e-19)
(0.63972 0.225849 3.4824e-19)
(0.443194 0.15453 6.69808e-19)
(0.144355 0.0512102 -7.84386e-19)
(0.487796 0.203739 -7.38062e-19)
(1.09964 0.430309 3.73145e-19)
(1.2936 0.530167 2.93391e-19)
(1.3055 0.534728 -2.76329e-19)
(1.25922 0.53606 1.11051e-20)
(1.20684 0.525074 9.20521e-20)
(1.14896 0.512812 7.4216e-21)
(1.0862 0.495949 -1.00632e-20)
(1.01914 0.47422 -3.98655e-20)
(0.948906 0.445326 7.24963e-20)
(0.883856 0.411212 1.06679e-19)
(0.834225 0.379694 2.48478e-19)
(0.795992 0.353064 0)
(0.766516 0.331742 5.39609e-21)
(0.744791 0.313393 -4.28295e-19)
(0.726067 0.300463 9.81643e-20)
(0.699468 0.282604 5.05249e-19)
(0.622745 0.249055 -1.47677e-19)
(0.430266 0.1703 3.18943e-19)
(0.139266 0.0557445 -2.60196e-20)
(0.477347 0.222212 6.70102e-21)
(1.08587 0.47515 3.43321e-19)
(1.28334 0.586196 2.21408e-19)
(1.29618 0.590136 -4.87316e-19)
(1.24887 0.589735 3.18623e-19)
(1.19605 0.576055 -1.10323e-19)
(1.137 0.561462 -1.14371e-20)
(1.07274 0.54199 1.32841e-20)
(1.00399 0.517225 6.62166e-20)
(0.931665 0.484992 -9.71453e-20)
(0.864082 0.448044 0)
(0.810209 0.411948 -9.92988e-20)
(0.772358 0.382887 1.14003e-19)
(0.745075 0.359587 1.55847e-19)
(0.723713 0.341582 -8.93013e-20)
(0.704763 0.325373 -2.27038e-19)
(0.678386 0.306032 -6.92526e-20)
(0.603264 0.269564 -1.25022e-21)
(0.415902 0.183378 0)
(0.133054 0.0594035 0)
(0.468597 0.239604 -3.60731e-19)
(1.07195 0.517202 0)
(1.27157 0.638906 2.52415e-19)
(1.28531 0.643047 -1.15266e-19)
(1.23729 0.640821 -3.33067e-19)
(1.18396 0.624403 9.14974e-20)
(1.12377 0.607654 -1.82355e-20)
(1.05811 0.585858 2.7724e-22)
(0.987658 0.558426 3.65131e-20)
(0.912639 0.52346 -4.30743e-20)
(0.84199 0.482012 5.95914e-20)
(0.788045 0.443833 3.08881e-19)
(0.749195 0.412157 1.32066e-20)
(0.720179 0.386143 -1.58332e-19)
(0.699287 0.36404 3.09015e-19)
(0.682638 0.348061 4.46695e-21)
(0.658933 0.328337 7.40922e-20)
(0.585779 0.287524 -3.62718e-19)
(0.400406 0.194297 3.68631e-19)
(0.126128 0.0618131 -4.39112e-19)
(0.462657 0.259703 3.57913e-23)
(1.05933 0.557175 0)
(1.2589 0.688088 0)
(1.27317 0.693126 1.08658e-19)
(1.22468 0.689305 1.29144e-19)
(1.17095 0.670378 -7.93823e-20)
(1.10971 0.651564 6.33021e-20)
(1.04287 0.627669 0)
(0.970924 0.597985 -6.41551e-20)
(0.893922 0.560313 1.4257e-19)
(0.822286 0.516732 1.85319e-19)
(0.766906 0.474936 -1.17297e-19)
(0.72725 0.439337 -1.48543e-19)
(0.69984 0.411435 3.52089e-19)
(0.67884 0.389143 -1.09259e-19)
(0.659935 0.36923 -1.33154e-19)
(0.633669 0.345615 -8.18975e-20)
(0.561695 0.301864 -3.94135e-19)
(0.383657 0.202552 5.47136e-20)
(0.118099 0.0633099 4.77765e-19)
(0.459022 0.278709 -1.43685e-19)
(1.04754 0.594579 -2.26728e-19)
(1.2456 0.733795 2.3869e-20)
(1.26047 0.740138 2.58444e-22)
(1.21178 0.73522 4.5913e-20)
(1.15769 0.71411 -2.06017e-19)
(1.09555 0.693368 0)
(1.02768 0.667518 4.17052e-21)
(0.954457 0.635727 -3.28856e-21)
(0.87568 0.595819 2.1974e-19)
(0.80101 0.548938 -4.81085e-20)
(0.741875 0.502556 5.2629e-20)
(0.699936 0.46446 0)
(0.669225 0.432062 -1.92642e-19)
(0.650182 0.406402 2.41874e-19)
(0.636348 0.386267 0)
(0.614895 0.362202 -1.80199e-19)
(0.543885 0.315489 5.26248e-19)
(0.36597 0.208752 6.31028e-20)
(0.109548 0.0633979 -5.9321e-19)
(0.456598 0.295941 -3.18079e-19)
(1.03665 0.630006 4.06662e-19)
(1.23195 0.776434 0)
(1.24708 0.783963 2.68794e-19)
(1.19824 0.778196 0)
(1.14409 0.755429 1.96609e-19)
(1.08139 0.733047 0)
(1.01282 0.70547 0)
(0.938247 0.671866 -2.40042e-20)
(0.857051 0.630205 -2.16308e-19)
(0.779103 0.580588 -3.45263e-19)
(0.719853 0.532858 6.79811e-20)
(0.679593 0.491058 2.56793e-19)
(0.653377 0.457326 2.17993e-19)
(0.630776 0.429172 -7.76463e-19)
(0.6118 0.402818 -3.2309e-19)
(0.585778 0.377006 1.87542e-19)
(0.51625 0.323819 0)
(0.346922 0.212361 5.46799e-19)
(0.100058 0.0624076 -6.44967e-19)
(0.454585 0.311992 3.50406e-19)
(1.02572 0.662964 -4.46167e-19)
(1.21831 0.815999 0)
(1.23372 0.824759 -9.93911e-21)
(1.18479 0.818348 -1.11107e-19)
(1.13059 0.794222 0)
(1.06744 0.770524 -2.05133e-20)
(0.998178 0.741475 1.42259e-20)
(0.922199 0.706419 -2.19716e-20)
(0.839109 0.663145 1.84674e-20)
(0.759828 0.611251 0)
(0.696091 0.55924 2.68884e-19)
(0.648647 0.5129 3.68777e-21)
(0.614623 0.472828 1.1873e-19)
(0.597355 0.439338 1.43551e-19)
(0.585649 0.417879 0)
(0.56666 0.384646 -3.19564e-19)
(0.496367 0.331351 6.26485e-19)
(0.32731 0.21367 -6.69417e-19)
(0.0906235 0.0601025 1.40446e-18)
(0.452778 0.327273 0)
(1.01554 0.694649 0)
(1.20491 0.853079 -2.44594e-19)
(1.22025 0.862819 0)
(1.17109 0.855705 0)
(1.11697 0.830466 2.74892e-19)
(1.05353 0.805724 -2.4794e-20)
(0.983868 0.775521 1.66359e-20)
(0.906845 0.73933 2.40581e-21)
(0.821973 0.694986 0)
(0.73899 0.642133 -5.62298e-20)
(0.671899 0.588903 -2.23828e-19)
(0.626403 0.541158 -2.84242e-19)
(0.598694 0.497926 -1.19145e-19)
(0.576979 0.464662 1.58739e-19)
(0.559482 0.427031 -3.77778e-19)
(0.533735 0.396805 6.9331e-19)
(0.466637 0.335543 8.78452e-21)
(0.306349 0.212636 -6.48517e-19)
(0.0806495 0.0567265 -9.64234e-20)
(0.450954 0.342013 0)
(1.00554 0.724206 -3.46155e-19)
(1.19198 0.8876 2.72961e-19)
(1.20721 0.898417 0)
(1.15784 0.890669 0)
(1.10377 0.864343 -6.05249e-19)
(1.04005 0.838719 0)
(0.970043 0.807565 0)
(0.892019 0.770563 -2.40526e-20)
(0.8053 0.725413 4.17292e-20)
(0.719119 0.670777 -4.34155e-19)
(0.649519 0.613793 0)
(0.597376 0.560513 -3.08552e-19)
(0.557778 0.513598 1.18257e-20)
(0.537595 0.467664 -5.0677e-19)
(0.528096 0.437011 2.05138e-19)
(0.512541 0.396784 4.4945e-21)
(0.445981 0.334651 -7.45471e-19)
(0.286764 0.208692 3.53975e-19)
(0.0731833 0.0528719 1.03162e-19)
(0.449195 0.356058 0)
(0.99646 0.752619 -4.06738e-19)
(1.1795 0.920073 2.89926e-19)
(1.19433 0.931732 6.15657e-19)
(1.14475 0.923298 1.28055e-19)
(1.09083 0.896006 -9.07917e-20)
(1.02697 0.869663 5.80957e-20)
(0.956742 0.83769 -1.48226e-19)
(0.877833 0.800081 2.57293e-20)
(0.789465 0.754601 2.31585e-19)
(0.700954 0.699725 3.59905e-19)
(0.626827 0.642386 7.11114e-20)
(0.572528 0.587293 4.49191e-19)
(0.539476 0.535122 2.95272e-19)
(0.515462 0.489977 3.66409e-19)
(0.497941 0.443856 -2.30936e-19)
(0.476827 0.403398 -2.76009e-19)
(0.414177 0.331904 3.25343e-19)
(0.263274 0.201354 -1.93524e-19)
(0.0672894 0.0489398 3.3842e-19)
(0.447301 0.369405 5.37797e-19)
(0.987522 0.77887 6.45971e-19)
(1.16742 0.950308 1.58653e-19)
(1.18196 0.962908 1.59922e-20)
(1.1323 0.953892 -4.41307e-19)
(1.07855 0.925666 1.74846e-19)
(1.01453 0.898656 -6.58786e-20)
(0.944106 0.86601 -2.14082e-20)
(0.864341 0.828122 -6.08286e-21)
(0.774644 0.78243 -2.62494e-19)
(0.683068 0.727093 2.03797e-20)
(0.603845 0.668088 0)
(0.54413 0.611965 0)
(0.495262 0.55528 -1.49196e-19)
(0.468766 0.497461 -6.0238e-19)
(0.459045 0.450029 5.01368e-19)
(0.448217 0.38662 3.09381e-19)
(0.395596 0.312853 0)
(0.25825 0.179616 6.16707e-19)
(0.0616052 0.033318 -3.69188e-19)
(0.445405 0.381836 -2.87671e-19)
(0.979229 0.803906 2.46755e-19)
(1.15573 0.978682 -3.53828e-19)
(1.16985 0.991981 -3.84391e-19)
(1.12017 0.982368 -1.72751e-19)
(1.06669 0.953371 4.22245e-20)
(1.00266 0.92585 0)
(0.932172 0.892709 2.07247e-19)
(0.851842 0.854616 5.20715e-21)
(0.76046 0.809212 0)
(0.665895 0.754859 0)
(0.582732 0.697838 5.08639e-20)
(0.515687 0.638763 8.03616e-20)
(0.474969 0.577354 -1.60589e-19)
(0.441463 0.52285 4.36253e-19)
(0.41829 0.449007 -5.52073e-19)
(0.400397 0.386352 -6.68232e-19)
(0.365405 0.292942 5.96161e-19)
(0.27184 0.184156 -2.22872e-19)
(0.136059 0.102826 1.27316e-19)
(0.443151 0.393399 3.31639e-19)
(0.9709 0.826846 0)
(1.14438 1.00502 0)
(1.15826 1.01911 -1.30112e-19)
(1.10869 1.009 1.05297e-19)
(1.0555 0.979263 -2.07041e-20)
(0.991504 0.951302 -2.53264e-19)
(0.921037 0.917702 -2.94601e-19)
(0.84023 0.879583 -4.57836e-20)
(0.747909 0.834406 -2.18899e-20)
(0.651344 0.780166 5.58541e-20)
(0.564476 0.721782 -4.0945e-19)
(0.494856 0.663546 -4.62259e-19)
(0.428234 0.605256 -8.5386e-20)
(0.384289 0.530876 0)
(0.362893 0.464844 -1.36104e-20)
(0.351759 0.350886 3.65519e-19)
(0.321318 0.204087 -6.28284e-19)
(0.292999 0.0323095 4.62473e-19)
(0.0902599 -0.0711348 3.6745e-19)
(0.440844 0.404339 -7.22258e-19)
(0.963031 0.848714 -3.08455e-19)
(1.13337 1.02979 5.65469e-21)
(1.1469 1.0445 1.63448e-19)
(1.0974 1.03394 0)
(1.04455 1.00371 5.09473e-19)
(0.980656 0.975493 3.18038e-19)
(0.910177 0.941658 -4.93666e-20)
(0.828836 0.903803 3.96805e-20)
(0.735082 0.859087 -2.01891e-20)
(0.634973 0.807144 1.87521e-20)
(0.543685 0.752845 3.6258e-19)
(0.462645 0.69486 4.52122e-19)
(0.408355 0.630142 8.19426e-20)
(0.358224 0.570038 4.58637e-19)
(0.30349 0.473689 0)
(0.213599 0.359543 0)
(0.0756386 0.336598 4.69016e-19)
(-0.0518969 0.634637 -3.24681e-20)
(-0.00270945 1.46755 -6.09749e-19)
(0.438151 0.41498 3.91378e-19)
(0.955214 0.86893 9.26414e-19)
(1.12262 1.05304 -1.39523e-18)
(1.13594 1.06857 8.46318e-19)
(1.08658 1.05773 -1.01425e-19)
(1.03398 1.02712 6.5881e-19)
(0.970162 0.99886 0)
(0.899784 0.965118 2.94823e-19)
(0.818079 0.927716 0)
(0.723506 0.884248 1.48994e-19)
(0.621932 0.83407 -3.24333e-20)
(0.526015 0.779962 3.63657e-20)
(0.446255 0.725494 4.9584e-19)
(0.357746 0.671105 -1.87037e-19)
(0.275173 0.598851 -2.42485e-19)
(0.206351 0.542173 0)
(0.113399 0.626969 0)
(0.0524374 1.19952 0)
(0.0854763 2.40019 -2.64138e-19)
(0.118258 2.88005 -1.63867e-19)
(0.435544 0.424835 0)
(0.94784 0.888124 0)
(1.11226 1.07492 4.98708e-19)
(1.12527 1.09112 -7.06061e-19)
(1.07596 1.08008 4.90108e-19)
(1.02369 1.04935 -6.04674e-19)
(0.960043 1.02122 -3.71337e-20)
(0.889763 0.987715 2.89131e-20)
(0.807859 0.951123 -1.67902e-21)
(0.712309 0.909263 -1.68037e-19)
(0.608008 0.861207 4.64686e-20)
(0.510897 0.812782 3.33908e-19)
(0.415738 0.764302 -4.87483e-19)
(0.343166 0.703955 -5.75909e-19)
(0.278387 0.663891 2.03356e-19)
(0.214524 0.777194 0)
(0.158748 1.45298 2.93338e-19)
(0.160454 2.65098 3.34598e-19)
(0.162139 3.07394 -3.74394e-19)
(0.15343 3.21673 4.21343e-19)
(0.432766 0.433652 0)
(0.940508 0.905704 7.50239e-19)
(1.1022 1.09543 -1.29417e-19)
(1.11507 1.11248 8.85447e-19)
(1.06591 1.10137 -5.14439e-19)
(1.01388 1.07054 0)
(0.950369 1.04266 0)
(0.880236 1.00957 0)
(0.798213 0.974158 -1.30291e-19)
(0.702072 0.933979 -3.66177e-21)
(0.596302 0.888581 0)
(0.490815 0.842854 -3.24058e-19)
(0.402855 0.798177 0)
(0.294179 0.763331 4.08619e-19)
(0.226183 0.839572 -2.63426e-19)
(0.18022 1.41698 -2.22138e-19)
(0.195354 2.64174 -5.50451e-19)
(0.214113 3.12356 -2.70076e-19)
(0.202577 3.27549 -2.93577e-19)
(0.187102 3.31769 2.64818e-19)
(0.430084 0.44185 -2.53215e-19)
(0.933566 0.922337 1.45704e-20)
(1.09256 1.11471 -1.39272e-19)
(1.10516 1.13248 -7.09523e-19)
(1.05604 1.12136 0)
(1.00435 1.0907 0)
(0.941049 1.06323 0)
(0.871182 1.03082 -2.04699e-20)
(0.789181 0.99653 1.54157e-19)
(0.692446 0.958471 0)
(0.585107 0.91672 0)
(0.485943 0.878165 0)
(0.381799 0.844945 0)
(0.319207 0.841306 2.62404e-19)
(0.292756 1.17143 6.89222e-19)
(0.294873 2.29587 2.16399e-19)
(0.306222 3.07643 3.79388e-19)
(0.297311 3.29684 -2.22772e-19)
(0.244072 3.36804 8.22305e-20)
(0.209193 3.38142 0)
(0.427176 0.449477 2.56344e-19)
(0.926445 0.937955 -1.6152e-18)
(1.08298 1.13329 -4.57418e-19)
(1.09552 1.152 -1.12216e-19)
(1.0466 1.14098 1.31575e-19)
(0.995177 1.11041 -9.37429e-19)
(0.932111 1.08336 6.43886e-20)
(0.862515 1.05158 4.80356e-19)
(0.780704 1.01873 0)
(0.684309 0.983301 -9.27645e-21)
(0.576742 0.945973 8.43879e-21)
(0.464129 0.91008 0)
(0.377302 0.883853 0)
(0.333745 1.00228 -3.23451e-19)
(0.3181 1.79728 -1.35332e-20)
(0.311728 2.90612 -1.00082e-19)
(0.330011 3.29696 1.39112e-19)
(0.302153 3.40737 6.94797e-21)
(0.232638 3.43669 2.07936e-19)
(0.20535 3.44529 -1.05536e-19)
(0.423924 0.457139 4.93147e-19)
(0.919041 0.954153 1.5433e-18)
(1.07297 1.15231 5.63059e-19)
(1.08531 1.17169 0)
(1.03656 1.16071 0)
(0.985566 1.13034 7.1813e-19)
(0.92287 1.10372 -4.55036e-19)
(0.853781 1.07269 -4.40599e-19)
(0.772401 1.0412 -1.83997e-20)
(0.675764 1.00803 -5.9479e-20)
(0.56724 0.973965 -1.77964e-19)
(0.464322 0.943571 0)
(0.385453 0.958189 0)
(0.35853 1.3258 -1.68397e-19)
(0.379314 2.37923 -2.21668e-19)
(0.423601 3.19426 0)
(0.453531 3.39609 1.82436e-19)
(0.38273 3.46675 2.44047e-19)
(0.302715 3.51082 -5.87675e-19)
(0.275031 3.5371 3.31733e-19)
(0.41995 0.464794 -9.34898e-19)
(0.910555 0.970599 -7.3386e-19)
(1.06198 1.17216 0)
(1.07448 1.19242 0)
(1.02615 1.18142 0)
(0.97557 1.15099 0)
(0.913346 1.12461 4.86791e-19)
(0.84487 1.09418 -5.5517e-19)
(0.764185 1.06399 0)
(0.668734 1.03356 6.04952e-20)
(0.56228 1.00514 2.7573e-19)
(0.455365 0.983913 1.6817e-20)
(0.401034 1.05876 3.18743e-20)
(0.427789 1.67152 2.37679e-19)
(0.460909 2.84518 -3.46394e-20)
(0.496013 3.33382 0)
(0.478181 3.47386 -1.1182e-19)
(0.382725 3.5644 1.08987e-19)
(0.287256 3.64329 3.92341e-19)
(0.208266 3.62714 -3.5518e-19)
(0.41539 0.472724 4.42864e-19)
(0.901431 0.988344 -7.19703e-19)
(1.05007 1.19305 0)
(1.06248 1.21369 -1.80863e-19)
(1.01456 1.20253 6.89081e-19)
(0.964626 1.17208 0)
(0.903187 1.14592 0)
(0.835661 1.11597 1.03451e-18)
(0.755968 1.08709 2.18698e-20)
(0.66139 1.05884 -1.77193e-19)
(0.554307 1.03335 -1.04865e-19)
(0.461584 1.02666 1.04688e-19)
(0.427216 1.22403 0)
(0.468465 2.05778 -1.0505e-19)
(0.528741 3.11143 9.83374e-20)
(0.589466 3.44282 -7.50481e-20)
(0.586623 3.5587 0)
(0.505801 3.67363 -2.32577e-19)