/*--------------------------------*- C++ -*----------------------------------*\
| =========                 |                                                 |
| \\      /  F ield         | OpenFOAM: The Open Source CFD Toolbox           |
|  \\    /   O peration     | Version:  v2012                                 |
|   \\  /    A nd           | Website:  www.openfoam.com                      |
|    \\/     M anipulation  |                                                 |
\*---------------------------------------------------------------------------*/
FoamFile
{
    version     2.0;
    format      ascii;
    class       volScalarField;
    location    "28";
    object      p;
}
// * * * * * * * * * * * * * * * * * * * * * * * * * * * * * * * * * * * * * //

dimensions      [0 2 -2 0 0 0 0];


internalField   nonuniform List<scalar> 
2200
(
0.592188
0.570688
0.554779
0.539109
0.524498
0.51197
0.501606
0.493487
0.48775
0.484695
0.485054
0.488729
0.494929
0.503375
0.513969
0.52668
0.541408
0.557212
0.573196
0.594707
0.524627
0.521369
0.518444
0.514324
0.508858
0.502379
0.495744
0.489755
0.485209
0.482724
0.483079
0.486223
0.491265
0.497622
0.504517
0.511174
0.516791
0.520927
0.523831
0.527145
0.48474
0.484961
0.487019
0.488354
0.488737
0.487877
0.485867
0.483139
0.480511
0.478927
0.479328
0.481622
0.484784
0.487906
0.490181
0.491169
0.49088
0.489792
0.488
0.487758
0.46225
0.463704
0.466297
0.468744
0.471192
0.473203
0.47435
0.474576
0.474142
0.47372
0.474183
0.475403
0.476439
0.476665
0.475876
0.474135
0.471886
0.469596
0.466999
0.465576
0.447928
0.449889
0.452724
0.455588
0.45845
0.461266
0.463716
0.465546
0.466731
0.467405
0.467949
0.468209
0.467752
0.466474
0.464448
0.461954
0.459302
0.456512
0.453704
0.451779
0.440791
0.442388
0.444593
0.447118
0.449761
0.452399
0.454917
0.457244
0.459148
0.46047
0.461106
0.460904
0.459877
0.458206
0.456158
0.453886
0.45149
0.449108
0.446981
0.445402
0.437483
0.438506
0.439783
0.441661
0.443809
0.445955
0.448072
0.450255
0.452328
0.45397
0.454741
0.45448
0.453458
0.452043
0.450495
0.448756
0.446917
0.44524
0.444068
0.443055
0.434889
0.435532
0.436201
0.437576
0.439266
0.440991
0.44273
0.444583
0.446496
0.44824
0.449175
0.449109
0.448478
0.447585
0.446541
0.445348
0.444062
0.442952
0.442404
0.441757
0.432072
0.432494
0.432942
0.434017
0.435356
0.436782
0.438263
0.439839
0.441497
0.443153
0.444289
0.444673
0.444572
0.444199
0.443594
0.442821
0.441937
0.441177
0.440873
0.440442
0.428558
0.428847
0.42926
0.43025
0.431497
0.432884
0.43436
0.435882
0.437439
0.439051
0.440476
0.441395
0.441767
0.441698
0.441297
0.440674
0.439991
0.43938
0.439127
0.438832
0.424243
0.424407
0.424819
0.425838
0.427175
0.428736
0.430486
0.432324
0.434187
0.436061
0.437845
0.439085
0.439642
0.439578
0.439149
0.438554
0.437918
0.437341
0.437096
0.436921
0.41965
0.419716
0.42012
0.421122
0.422482
0.424138
0.426085
0.428279
0.43067
0.433132
0.435302
0.436661
0.437199
0.437204
0.436907
0.436454
0.435918
0.435452
0.435258
0.435177
0.415117
0.415119
0.415519
0.416418
0.417701
0.41929
0.421168
0.423397
0.426079
0.429049
0.431733
0.433561
0.434559
0.43509
0.435211
0.435035
0.434735
0.434462
0.434335
0.434304
0.4107
0.410597
0.41097
0.411746
0.413038
0.414596
0.416429
0.418662
0.421435
0.424766
0.428129
0.430809
0.432672
0.433812
0.434378
0.434595
0.434613
0.434554
0.434492
0.434474
0.406055
0.40599
0.406319
0.407091
0.408546
0.410206
0.412278
0.414845
0.418006
0.421876
0.425997
0.429423
0.431859
0.433447
0.43447
0.43505
0.435333
0.435436
0.435445
0.43543
0.401036
0.401041
0.401321
0.402125
0.403604
0.405494
0.407953
0.411113
0.415046
0.419846
0.424933
0.429097
0.432023
0.434038
0.43545
0.43632
0.436811
0.43707
0.437159
0.437145
0.395136
0.395097
0.395468
0.396331
0.397781
0.399814
0.402597
0.40631
0.411105
0.417094
0.423472
0.428739
0.432508
0.435213
0.437132
0.438397
0.439186
0.439638
0.439794
0.439763
0.3878
0.387735
0.388133
0.389121
0.390733
0.393015
0.396187
0.400502
0.406231
0.413554
0.42153
0.428248
0.433208
0.436825
0.439405
0.441191
0.442368
0.443037
0.443271
0.443217
0.378921
0.378848
0.379279
0.380408
0.382353
0.385159
0.389065
0.394374
0.401394
0.41036
0.420186
0.428493
0.434714
0.439257
0.442558
0.444884
0.446451
0.447315
0.447608
0.447529
0.368123
0.368066
0.368641
0.370072
0.372515
0.376078
0.381056
0.387776
0.396618
0.407743
0.419733
0.429822
0.437343
0.442868
0.446863
0.449663
0.451542
0.45256
0.452924
0.452831
0.354921
0.354829
0.355563
0.357398
0.360548
0.365133
0.37148
0.380064
0.391236
0.405064
0.419686
0.431923
0.440967
0.447635
0.452396
0.455761
0.458029
0.459241
0.459664
0.459544
0.338223
0.338165
0.339191
0.341621
0.345734
0.351707
0.359981
0.370986
0.38505
0.402147
0.419914
0.434654
0.445517
0.453524
0.4593
0.463387
0.466069
0.467493
0.467993
0.467842
0.317305
0.317179
0.318581
0.321876
0.327429
0.335503
0.34643
0.360644
0.378354
0.399336
0.420735
0.438335
0.451308
0.460827
0.467725
0.47263
0.475869
0.477585
0.478162
0.477952
0.289794
0.289922
0.292212
0.297012
0.304884
0.316044
0.330719
0.349211
0.371409
0.396972
0.422516
0.443249
0.458477
0.469681
0.477861
0.483688
0.487516
0.48951
0.490158
0.48991
0.253227
0.253613
0.257426
0.265181
0.276962
0.292952
0.312919
0.336796
0.364421
0.395302
0.425403
0.449513
0.467165
0.480179
0.489745
0.496639
0.501207
0.503594
0.504324
0.503956
0.20443
0.204969
0.212301
0.225184
0.243343
0.266372
0.293124
0.323631
0.357598
0.394359
0.42933
0.456998
0.47723
0.492191
0.503308
0.511413
0.516816
0.519494
0.52018
0.519734
0.138885
0.141903
0.15769
0.179485
0.20641
0.237565
0.272184
0.310218
0.351283
0.394675
0.435272
0.467249
0.490792
0.50844
0.521722
0.531688
0.538592
0.5418
0.542405
0.542139
0.0633269
0.073645
0.100302
0.131946
0.168614
0.208669
0.251363
0.297203
0.345649
0.396099
0.442936
0.47993
0.507556
0.5286
0.544798
0.557102
0.566228
0.570601
0.571634
0.571949
-0.00307324
0.0128313
0.04615
0.0860264
0.131811
0.18046
0.231275
0.28486
0.340549
0.397874
0.450744
0.492462
0.523566
0.547366
0.565772
0.579944
0.590081
0.595794
0.597593
0.597591
-0.0527372
-0.0386912
-0.000156157
0.0455014
0.098308
0.154067
0.212206
0.272996
0.33561
0.399602
0.458085
0.50392
0.537809
0.563733
0.583936
0.599497
0.610253
0.616078
0.617846
0.617974
-0.0936338
-0.0805575
-0.0387197
0.0107532
0.0688123
0.130211
0.194591
0.261779
0.330716
0.400757
0.464243
0.513507
0.549796
0.577201
0.598019
0.613896
0.625194
0.631248
0.633301
0.633469
-0.128956
-0.115607
-0.0714508
-0.0191641
0.042913
0.108854
0.178442
0.251082
0.325517
0.400895
0.469006
0.521469
0.559537
0.587633
0.609062
0.62535
0.636862
0.643289
0.64552
0.645693
-0.159811
-0.146341
-0.100252
-0.0456182
0.0197819
0.089511
0.163444
0.24069
0.319978
0.400327
0.472594
0.527595
0.5669
0.596039
0.617882
0.63426
0.646348
0.652929
0.655387
0.65552
-0.187666
-0.174146
-0.126414
-0.0695964
-0.00128703
0.0716212
0.149222
0.230488
0.314171
0.399096
0.475146
0.532519
0.573375
0.603181
0.625472
0.64217
0.654021
0.660979
0.663205
0.663062
-0.21316
-0.199685
-0.150699
-0.0917715
-0.0208554
0.0547527
0.135513
0.22034
0.307942
0.396859
0.476463
0.536473
0.578991
0.609726
0.632438
0.64932
0.661037
0.667717
0.670075
0.669962
-0.237243
-0.223478
-0.173527
-0.112587
-0.0393143
0.0386388
0.12212
0.21004
0.301088
0.39373
0.477296
0.540356
0.584366
0.616032
0.639156
0.65601
0.667719
0.674311
0.676651
0.676654
-0.259871
-0.245951
-0.195224
-0.132452
-0.0571322
0.0229614
0.108866
0.199506
0.293749
0.390263
0.477772
0.543717
0.589738
0.622473
0.645856
0.662771
0.674495
0.680881
0.683306
0.683302
-0.281259
-0.267377
-0.215985
-0.151662
-0.0746003
0.00748089
0.0956206
0.188751
0.285923
0.385883
0.477028
0.546377
0.594899
0.628669
0.652711
0.669784
0.681513
0.68783
0.69006
0.69006
-0.301883
-0.287798
-0.235999
-0.17042
-0.0919006
-0.00797908
0.0822669
0.177686
0.277542
0.380849
0.476288
0.549152
0.599793
0.635158
0.659928
0.677158
0.688764
0.694796
0.696988
0.696919
-0.322206
-0.307505
-0.255392
-0.188771
-0.109049
-0.0234757
0.0687076
0.166282
0.26874
0.37532
0.474252
0.55045
0.604364
0.641984
0.667658
0.684994
0.696229
0.702066
0.703912
0.70375
-0.342212
-0.32672
-0.274283
-0.206709
-0.125979
-0.0389779
0.0549466
0.154545
0.259256
0.368413
0.47062
0.551156
0.60867
0.648898
0.676108
0.69362
0.704171
0.709138
0.710676
0.710421
-0.361779
-0.345536
-0.292687
-0.224198
-0.142607
-0.0544055
0.0409988
0.142284
0.248953
0.360613
0.466594
0.55101
0.612428
0.656038
0.685454
0.703443
0.71281
0.716485
0.717098
0.716838
-0.380724
-0.363942
-0.310601
-0.241207
-0.158849
-0.069682
0.0268986
0.129623
0.238147
0.352126
0.460788
0.548967
0.615148
0.663108
0.695776
0.715264
0.7235
0.723248
0.722473
0.722983
-0.399028
-0.381844
-0.327972
-0.257715
-0.174662
-0.0847112
0.0128267
0.116771
0.226758
0.342554
0.453752
0.546381
0.61694
0.669681
0.706952
0.729403
0.737842
0.733154
0.727862
0.725618
-0.416651
-0.399151
-0.344759
-0.273708
-0.190004
-0.0993883
-0.00110413
0.103744
0.214931
0.332335
0.445959
0.541554
0.61655
0.675341
0.718655
0.746398
0.759198
0.748973
0.744368
0.749079
-0.433608
-0.415791
-0.360905
-0.289152
-0.20486
-0.113682
-0.0148149
0.0907333
0.202925
0.321744
0.437165
0.535036
0.614336
0.678738
0.729327
0.765136
0.786783
0.766369
0.721944
0.678661
-0.449831
-0.431776
-0.376448
-0.304132
-0.219362
-0.127736
-0.0284248
0.0776391
0.190534
0.310452
0.426913
0.526485
0.608881
0.678878
0.73752
0.784511
0.821498
0.827053
0.845758
0.897021
-0.465286
-0.447158
-0.391475
-0.318776
-0.233693
-0.141789
-0.0422266
0.0640944
0.177308
0.297565
0.414594
0.515289
0.599453
0.673142
0.735527
0.784764
0.81464
0.814008
0.783939
0.792796
-0.479939
-0.461907
-0.405943
-0.333024
-0.247771
-0.155752
-0.0561193
0.0501985
0.163313
0.283431
0.400712
0.501164
0.584426
0.657454
0.718506
0.763491
0.766273
0.724763
0.667446
0.657824
-0.493812
-0.476022
-0.419846
-0.346864
-0.261581
-0.169627
-0.0701255
0.0359213
0.148563
0.268119
0.384587
0.4835
0.563993
0.630923
0.684671
0.702816
0.673881
0.604407
0.533385
0.519491
-0.50694
-0.489495
-0.4332
-0.360315
-0.275141
-0.183432
-0.0842577
0.0212633
0.133103
0.251472
0.366434
0.462907
0.537156
0.591232
0.620787
0.612739
0.564546
0.465529
0.379641
0.361968
-0.51978
-0.502746
-0.446403
-0.373741
-0.288793
-0.197467
-0.0987818
0.00601123
0.116742
0.233465
0.346075
0.438601
0.506149
0.543955
0.539228
0.505861
0.401857
0.281044
0.174614
0.151063
-0.533222
-0.516548
-0.46015
-0.387769
-0.303113
-0.212206
-0.114095
-0.010175
0.0992372
0.21386
0.323237
0.4109
0.470817
0.485648
0.449079
0.364164
0.207828
0.0554755
-0.0721313
-0.097266
-0.547774
-0.531338
-0.474761
-0.40263
-0.318271
-0.227762
-0.130265
-0.0272933
0.080616
0.192658
0.298005
0.379969
0.428113
0.416706
0.35777
0.208217
0.003904
-0.212319
-0.394282
-0.440459
-0.563512
-0.547159
-0.490285
-0.418348
-0.334248
-0.244098
-0.147231
-0.045303
0.0609363
0.170073
0.270491
0.346866
0.37984
0.336806
0.243999
0.0488589
-0.192372
-0.491116
-0.821075
-0.964223
-0.580497
-0.564152
-0.506822
-0.434989
-0.351077
-0.261258
-0.16504
-0.0642267
0.0402298
0.146212
0.240763
0.310923
0.327074
0.25085
0.107503
-0.111014
-0.359775
-0.720428
-1.32672
-1.90883
-0.598746
-0.582313
-0.524425
-0.452608
-0.368775
-0.27923
-0.183638
-0.0839718
0.0186002
0.121278
0.209993
0.272334
0.272318
0.174208
-0.0257359
-0.278298
-0.498726
-0.755853
-1.34784
-2.93592
-0.618294
-0.601779
-0.543166
-0.471309
-0.387479
-0.298196
-0.203261
-0.104836
-0.00428011
0.0951261
0.178116
0.231221
0.211869
0.112607
-0.126167
-0.390482
-0.554183
-0.609414
-0.62607
-1.02947
-0.639043
-0.622536
-0.563206
-0.49138
-0.407564
-0.318623
-0.22449
-0.127486
-0.0292342
0.0662361
0.143566
0.18648
0.149628
0.064075
-0.176908
-0.40926
-0.538951
-0.557349
-0.512421
-0.557141
-0.660989
-0.644488
-0.58452
-0.51286
-0.429076
-0.340601
-0.247427
-0.152078
-0.0565274
0.0345758
0.107319
0.140494
0.0938566
0.010121
-0.214795
-0.401454
-0.497777
-0.508532
-0.554309
-0.565225
-0.683999
-0.667346
-0.607072
-0.535746
-0.451955
-0.364098
-0.272066
-0.178537
-0.0859344
0.000598648
0.0686052
0.0930437
0.0430274
-0.0514332
-0.246569
-0.392217
-0.478689
-0.443938
-0.469489
-0.471695
-0.707856
-0.690809
-0.630759
-0.559912
-0.476038
-0.389002
-0.298246
-0.2067
-0.117288
-0.0355547
0.0274741
0.0424087
-0.000902178
-0.121845
-0.284658
-0.390826
-0.450538
-0.48388
-0.465723
-0.472434
-0.731991
-0.714611
-0.655591
-0.58513
-0.501037
-0.415042
-0.325689
-0.236263
-0.150398
-0.0731659
-0.0143526
-0.0110119
-0.0443153
-0.187076
-0.327206
-0.401734
-0.40075
-0.463662
-0.438906
-0.447204
-0.755943
-0.738522
-0.681015
-0.610815
-0.526659
-0.441957
-0.354051
-0.266759
-0.184742
-0.112041
-0.0563469
-0.0635635
-0.0943972
-0.239337
-0.364129
-0.437856
-0.404019
-0.440758
-0.437496
-0.43963
-0.779217
-0.762204
-0.706206
-0.636308
-0.552518
-0.469207
-0.382725
-0.297638
-0.219689
-0.151441
-0.0968663
-0.11444
-0.156247
-0.287301
-0.380854
-0.44281
-0.458802
-0.44314
-0.448297
-0.443218
-0.801126
-0.784833
-0.730125
-0.660769
-0.578249
-0.496263
-0.411192
-0.328143
-0.254057
-0.191046
-0.135277
-0.163446
-0.222784
-0.332973
-0.385905
-0.418884
-0.485363
-0.439827
-0.452446
-0.443417
-0.820733
-0.805515
-0.752235
-0.683639
-0.6032
-0.522191
-0.438466
-0.357516
-0.286376
-0.22974
-0.17231
-0.209168
-0.296723
-0.395375
-0.401985
-0.343532
-0.439673
-0.407036
-0.442578
-0.438347
-0.836923
-0.8231
-0.771662
-0.704226
-0.626119
-0.545938
-0.463699
-0.384611
-0.3157
-0.265965
-0.207705
-0.247487
-0.374169
-0.468788
-0.432199
-0.31416
-0.363679
-0.396188
-0.423117
-0.43597
-0.848621
-0.836593
-0.787745
-0.721811
-0.645627
-0.566493
-0.48578
-0.408233
-0.340353
-0.296845
-0.24268
-0.272109
-0.450947
-0.61789
-0.67604
-0.672633
-0.673491
-0.66368
-0.653519
-0.643129
-0.854816
-0.844769
-0.79906
-0.73492
-0.660352
-0.58252
-0.503287
-0.4272
-0.359567
-0.318323
-0.27558
-0.288751
-0.512598
-0.834958
-1.24648
-1.44705
-1.47725
-1.43727
-1.3516
-1.27548
-0.854669
-0.846525
-0.804577
-0.74233
-0.669294
-0.593075
-0.515092
-0.439454
-0.371317
-0.326747
-0.294256
-0.293373
-0.526937
-0.916088
-1.46639
-1.77989
-1.82987
-1.72747
-1.62678
-1.54307
-0.847112
-0.84
-0.802395
-0.74288
-0.671739
-0.596801
-0.519604
-0.443568
-0.371924
-0.319577
-0.286182
-0.268513
-0.418534
-0.615856
-0.869983
-0.980148
-0.9227
-0.8244
-0.693076
-0.613727
-0.829542
-0.822386
-0.790916
-0.735463
-0.666766
-0.593016
-0.516008
-0.438538
-0.3606
-0.293256
-0.243575
-0.163609
-0.120626
0.051165
0.222855
0.385663
0.548293
0.658829
0.724194
0.765318
-0.797443
-0.790819
-0.768586
-0.71989
-0.654422
-0.581827
-0.504481
-0.424041
-0.337801
-0.249294
-0.170945
-0.0205315
0.193449
0.574746
0.973234
1.29825
1.52826
1.6689
1.73685
1.76053
-0.750851
-0.74615
-0.737462
-0.697223
-0.635598
-0.563749
-0.486082
-0.40275
-0.310729
-0.203203
-0.0956994
0.0525128
0.363362
0.773263
1.1892
1.54354
1.80552
1.96306
2.03232
2.04968
-0.710874
-0.709891
-0.706057
-0.671482
-0.613873
-0.543159
-0.464405
-0.379933
-0.287499
-0.173983
-0.0563163
0.047284
0.316622
0.658811
1.00058
1.29372
1.52378
1.66479
1.73085
1.75096
-0.680227
-0.682343
-0.675591
-0.646223
-0.590022
-0.521152
-0.443725
-0.360916
-0.273737
-0.173191
-0.0652687
0.00611007
0.191978
0.457907
0.725715
0.942633
1.1132
1.22729
1.28226
1.30051
-0.638233
-0.640458
-0.637355
-0.614565
-0.561374
-0.496601
-0.424103
-0.346537
-0.26816
-0.186139
-0.0887653
-0.031664
0.0845998
0.289793
0.504579
0.669233
0.795753
0.887171
0.928668
0.939598
-0.580081
-0.581539
-0.582172
-0.565406
-0.521159
-0.46555
-0.402922
-0.334828
-0.266551
-0.199431
-0.114141
-0.0629991
0.00225403
0.152339
0.319567
0.441072
0.531179
0.597188
0.626767
0.632856
-0.502763
-0.504543
-0.505139
-0.494178
-0.463109
-0.422865
-0.374507
-0.319816
-0.26115
-0.205537
-0.134834
-0.0880826
-0.0514238
0.0560799
0.178693
0.26284
0.327308
0.373899
0.39566
0.402766
-0.415963
-0.417601
-0.417888
-0.411408
-0.39383
-0.369105
-0.335973
-0.297242
-0.248438
-0.205186
-0.149981
-0.107574
-0.0875649
-0.00524941
0.0813009
0.136023
0.185277
0.222075
0.238273
0.24366
-0.335798
-0.336988
-0.337611
-0.334838
-0.326768
-0.313722
-0.294205
-0.270206
-0.232713
-0.201806
-0.161503
-0.124128
-0.112386
-0.0470524
0.0164219
0.0552191
0.0888271
0.113767
0.127694
0.132268
-0.273965
-0.274689
-0.27554
-0.275587
-0.273437
-0.268131
-0.258127
-0.244635
-0.218998
-0.196715
-0.16756
-0.141454
-0.128665
-0.0791157
-0.0365908
-0.00478848
0.0188335
0.0329607
0.0399713
0.0411496
-0.233715
-0.234227
-0.235323
-0.237
-0.238335
-0.23753
-0.232793
-0.225302
-0.208899
-0.190578
-0.168547
-0.154198
-0.140758
-0.1076
-0.0774453
-0.0543125
-0.0385699
-0.0327577
-0.0322874
-0.0328232
-0.211443
-0.211804
-0.212905
-0.215017
-0.217818
-0.219161
-0.217266
-0.212865
-0.200624
-0.184605
-0.165273
-0.15585
-0.14758
-0.125172
-0.10301
-0.0897015
-0.0828221
-0.0802355
-0.0812891
-0.0831176
-0.202111
-0.202258
-0.203021
-0.204856
-0.207544
-0.209351
-0.208653
-0.206182
-0.193697
-0.179237
-0.156953
-0.147616
-0.141801
-0.128722
-0.114728
-0.108245
-0.105724
-0.104481
-0.105847
-0.10883
-0.202841
-0.202734
-0.202956
-0.203988
-0.205645
-0.206644
-0.205193
-0.201378
-0.191521
-0.17691
-0.147217
-0.13236
-0.127429
-0.12249
-0.114644
-0.112908
-0.115558
-0.122664
-0.125825
-0.127193
-0.212979
-0.212602
-0.212271
-0.212296
-0.21268
-0.212053
-0.209797
-0.203068
-0.191698
-0.176119
-0.149455
-0.116266
-0.111569
-0.110236
-0.111308
-0.115592
-0.116916
-0.12347
-0.127031
-0.126753
-0.233441
-0.232622
-0.231914
-0.230366
-0.229726
-0.227773
-0.224676
-0.216959
-0.205453
-0.185692
-0.149423
-0.120007
-0.103552
-0.11217
-0.106758
-0.10508
-0.0931219
-0.080736
-0.0804122
-0.0812425
-0.262144
-0.261391
-0.260673
-0.259401
-0.257975
-0.255139
-0.251856
-0.244562
-0.235347
-0.214999
-0.178909
-0.143543
-0.123948
-0.131684
-0.101792
-0.0844026
-0.0616032
-0.0351851
-0.023185
-0.0349138
-0.30008
-0.29929
-0.298683
-0.297683
-0.296545
-0.294909
-0.293774
-0.291179
-0.288854
-0.275213
-0.239627
-0.194969
-0.184661
-0.180127
-0.137097
-0.0992783
-0.0760165
-0.061369
-0.0474079
-0.0562639
-0.347045
-0.34641
-0.345976
-0.345765
-0.346094
-0.347719
-0.352303
-0.360513
-0.371127
-0.371415
-0.33081
-0.263642
-0.249456
-0.235172
-0.198398
-0.164075
-0.13788
-0.137217
-0.128051
-0.127488
-0.398819
-0.398665
-0.399054
-0.400255
-0.403526
-0.410989
-0.425864
-0.451042
-0.481335
-0.507477
-0.465421
-0.357714
-0.31763
-0.283659
-0.245339
-0.213805
-0.172639
-0.161936
-0.172983
-0.168606
-0.447647
-0.448118
-0.449775
-0.453248
-0.46094
-0.476961
-0.50731
-0.556698
-0.623572
-0.687979
-0.646189
-0.499109
-0.426545
-0.36113
-0.295112
-0.249609
-0.216226
-0.192928
-0.208024
-0.208561
-0.481131
-0.482569
-0.485947
-0.492278
-0.505246
-0.531254
-0.5795
-0.659518
-0.782208
-0.880564
-0.839429
-0.669197
-0.56597
-0.461416
-0.374373
-0.310185
-0.301504
-0.288646
-0.286189
-0.287011
-0.487464
-0.489397
-0.493486
-0.503132
-0.519845
-0.553158
-0.614977
-0.718947
-0.872618
-1.01187
-1.01066
-0.796789
-0.666524
-0.527047
-0.436929
-0.381328
-0.348977
-0.366049
-0.355027
-0.354696
-0.455775
-0.458028
-0.46125
-0.469425
-0.489307
-0.526725
-0.591925
-0.701458
-0.867361
-1.03429
-1.03245
-0.829006
-0.662649
-0.534429
-0.442348
-0.410966
-0.384716
-0.388691
-0.386301
-0.385828
-0.393104
-0.395342
-0.398896
-0.406257
-0.422227
-0.45491
-0.513954
-0.614167
-0.761848
-0.906949
-0.906377
-0.725526
-0.561702
-0.495351
-0.449686
-0.395994
-0.409407
-0.398473
-0.39504
-0.393076
-0.301934
-0.303485
-0.3063
-0.31132
-0.322585
-0.347042
-0.393997
-0.473259
-0.586966
-0.68987
-0.674714
-0.530486
-0.434213
-0.41335
-0.404505
-0.383138
-0.379055
-0.370207
-0.364145
-0.361734
-0.20352
-0.204372
-0.206049
-0.208867
-0.215739
-0.231249
-0.260992
-0.310674
-0.383385
-0.450936
-0.416772
-0.307231
-0.293627
-0.306291
-0.303015
-0.32279
-0.300035
-0.295565
-0.290676
-0.28846
-0.108154
-0.108562
-0.108981
-0.109939
-0.112783
-0.119964
-0.134477
-0.163008
-0.205288
-0.241478
-0.20461
-0.149429
-0.154017
-0.161822
-0.185834
-0.197675
-0.186825
-0.184066
-0.182578
-0.181154
-0.0261712
-0.0257733
-0.0245723
-0.0228499
-0.0219306
-0.0227235
-0.0252825
-0.0317779
-0.0385528
-0.0471318
-0.0727875
-0.0905318
-0.0827991
-0.0648529
-0.0744509
-0.0668215
-0.0581256
-0.0573473
-0.0573899
-0.0571018
-1.31842
-0.445349
-0.172712
0.113412
0.305714
0.472035
0.611079
0.752208
0.903195
0.98028
-0.309522
0.113253
0.138557
0.333256
0.466971
0.586486
0.690278
0.781685
0.811919
0.767943
0.089874
0.312749
0.354776
0.494791
0.587385
0.672563
0.742838
0.795194
0.799107
0.811608
0.330731
0.48239
0.518722
0.626787
0.685467
0.747231
0.794337
0.827819
0.837697
0.860823
0.519787
0.623581
0.65388
0.727035
0.771528
0.8154
0.848842
0.873745
0.884126
0.915215
0.66543
0.73782
0.768325
0.814134
0.851113
0.882539
0.907728
0.928733
0.943378
0.971316
0.787721
0.840112
0.866309
0.895664
0.924397
0.948887
0.969406
0.988901
1.00408
1.03036
0.893261
0.931683
0.953176
0.974503
0.996092
1.01602
1.03371
1.05203
1.06699
1.0906
0.98879
1.01787
1.03517
1.05093
1.06757
1.08396
1.09969
1.11677
1.13037
1.15267
1.07785
1.09876
1.11397
1.12743
1.14127
1.15523
1.1688
1.18343
1.19496
1.21462
1.16424
1.18014
1.19413
1.20613
1.21819
1.22987
1.241
1.2527
1.26036
1.27718
1.24982
1.26277
1.27658
1.28826
1.29884
1.30858
1.31735
1.3256
1.32917
1.34046
1.33919
1.35018
1.36366
1.37287
1.3803
1.38749
1.39468
1.40124
1.40225
1.40968
1.43763
1.44237
1.45041
1.4549
1.45817
1.46264
1.46864
1.47641
1.48023
1.49012
1.55095
1.53724
1.52979
1.52417
1.5215
1.52291
1.52941
1.54181
1.55657
1.58622
1.67185
1.61612
1.58527
1.5682
1.56005
1.56004
1.56873
1.58824
1.62025
1.68943
)
;

boundaryField
{
    wall-4
    {
        type            zeroGradient;
    }
    pressure-outlet-7
    {
        type            fixedValue;
        value           uniform 0;
    }
    velocity-inlet-6
    {
        type            zeroGradient;
    }
    velocity-inlet-5
    {
        type            zeroGradient;
    }
    frontAndBackPlanes
    {
        type            empty;
    }
}


// ************************************************************************* //
