/*--------------------------------*- C++ -*----------------------------------*\
| =========                 |                                                 |
| \\      /  F ield         | OpenFOAM: The Open Source CFD Toolbox           |
|  \\    /   O peration     | Version:  v2012                                 |
|   \\  /    A nd           | Website:  www.openfoam.com                      |
|    \\/     M anipulation  |                                                 |
\*---------------------------------------------------------------------------*/
FoamFile
{
    version     2.0;
    format      ascii;
    class       volVectorField;
    location    "28";
    object      U;
}
// * * * * * * * * * * * * * * * * * * * * * * * * * * * * * * * * * * * * * //

dimensions      [0 1 -1 0 0 0 0];


internalField   nonuniform List<vector> 
2200
(
(0.878841 -0.0304137 0)
(1.00578 -0.0512893 0)
(1.00323 -0.0354097 0)
(1.00021 -0.0244784 0)
(0.999845 -0.0167403 0)
(0.999951 -0.0108299 0)
(0.999966 -0.0069592 0)
(1.00005 -0.00427438 0)
(1.00011 -0.00225499 0)
(1.00017 -0.000660322 0)
(1.00011 0.000879353 0)
(1.0001 0.00248924 0)
(1.00007 0.00447392 0)
(0.999925 0.00715581 0)
(0.999985 0.0109759 0)
(0.999853 0.0167953 0)
(1.00019 0.0245468 0)
(1.00339 0.0352415 0)
(1.00586 0.051343 0)
(0.878936 0.0303909 0)
(0.711977 -0.0327628 0)
(0.996617 -0.0630133 0)
(1.03329 -0.0561593 0)
(1.02484 -0.046381 0)
(1.0158 -0.0360791 0)
(1.00969 -0.0263739 0)
(1.006 -0.0180469 0)
(1.00376 -0.0113901 0)
(1.00244 -0.0061507 0)
(1.00196 -0.0017214 0)
(1.00185 0.00254516 0)
(1.0024 0.00693445 0)
(1.00367 0.0120978 0)
(1.00601 0.0186281 0)
(1.00955 0.026941 0)
(1.01564 0.0366451 0)
(1.02472 0.0468832 0)
(1.033 0.0571009 0)
(0.996545 0.0631419 0)
(0.711688 0.03291 0)
(0.535559 -0.0238889 0)
(0.969892 -0.0569245 0)
(1.05647 -0.0547082 0)
(1.05223 -0.0487214 0)
(1.03616 -0.0402815 0)
(1.02439 -0.0320211 0)
(1.01589 -0.0239082 0)
(1.0104 -0.0161523 0)
(1.00731 -0.0089648 0)
(1.00585 -0.00250084 0)
(1.00584 0.00378419 0)
(1.0072 0.0102187 0)
(1.01022 0.017292 0)
(1.01553 0.0248957 0)
(1.02404 0.0327144 0)
(1.03595 0.0408825 0)
(1.05202 0.0491984 0)
(1.05637 0.0539567 0)
(0.969277 0.0574234 0)
(0.534682 0.0238795 0)
(0.392277 -0.0136431 0)
(0.911716 -0.0464051 0)
(1.05747 -0.0469486 0)
(1.06974 -0.0444538 0)
(1.05514 -0.0383053 0)
(1.03932 -0.0315871 0)
(1.02734 -0.0248657 0)
(1.01883 -0.0177201 0)
(1.01357 -0.0103021 0)
(1.01109 -0.00278447 0)
(1.01102 0.00480577 0)
(1.01334 0.0121141 0)
(1.01843 0.0192156 0)
(1.02683 0.0260862 0)
(1.03878 0.0327277 0)
(1.05453 0.0392477 0)
(1.06892 0.0453644 0)
(1.05608 0.0478742 0)
(0.91035 0.0467588 0)
(0.390679 0.013731 0)
(0.307783 -0.00449343 0)
(0.846681 -0.0323032 0)
(1.04921 -0.0398378 0)
(1.07926 -0.0381359 0)
(1.06819 -0.0336909 0)
(1.0518 -0.0282719 0)
(1.03821 -0.0227443 0)
(1.02789 -0.0166973 0)
(1.02077 -0.00991397 0)
(1.01706 -0.00253754 0)
(1.01682 0.00510778 0)
(1.02016 0.0123035 0)
(1.02711 0.018886 0)
(1.03744 0.0248074 0)
(1.05081 0.0299404 0)
(1.06701 0.03509 0)
(1.07784 0.0392781 0)
(1.04758 0.0409837 0)
(0.844099 0.0326571 0)
(0.30518 0.00464561 0)
(0.264601 0.000135773 0)
(0.789391 -0.019959 0)
(1.03335 -0.0312441 0)
(1.08311 -0.0317646 0)
(1.07681 -0.0286115 0)
(1.06055 -0.0239403 0)
(1.04722 -0.0196664 0)
(1.03641 -0.0146167 0)
(1.02858 -0.00859904 0)
(1.02422 -0.0017279 0)
(1.02399 0.00529855 0)
(1.02796 0.0120038 0)
(1.03547 0.017686 0)
(1.04572 0.0222707 0)
(1.05893 0.0261698 0)
(1.0752 0.0305081 0)
(1.08116 0.0332203 0)
(1.03065 0.0325003 0)
(0.785152 0.0204093 0)
(0.26099 6.48233e-06 0)
(0.240701 0.00105404 0)
(0.738573 -0.0122333 0)
(1.01367 -0.0250348 0)
(1.08353 -0.0267901 0)
(1.08224 -0.0244163 0)
(1.06711 -0.0202993 0)
(1.05392 -0.0164993 0)
(1.04332 -0.012144 0)
(1.03529 -0.00704627 0)
(1.03048 -0.00102238 0)
(1.03012 0.00528951 0)
(1.03421 0.0110096 0)
(1.04167 0.0157161 0)
(1.05212 0.0195886 0)
(1.06514 0.023158 0)
(1.0798 0.026761 0)
(1.08048 0.0286442 0)
(1.00924 0.0264433 0)
(0.732169 0.0128048 0)
(0.235913 -0.000903367 0)
(0.226516 0.000940533 0)
(0.696095 -0.00788349 0)
(0.993002 -0.0203917 0)
(1.08206 -0.0227662 0)
(1.08643 -0.0208974 0)
(1.07263 -0.0174106 0)
(1.0592 -0.0137387 0)
(1.04867 -0.00970104 0)
(1.04065 -0.00515679 0)
(1.03565 4.20736e-05 0)
(1.03511 0.0056119 0)
(1.03917 0.0104542 0)
(1.0465 0.014349 0)
(1.05657 0.0179075 0)
(1.06961 0.0207216 0)
(1.08299 0.0236651 0)
(1.07795 0.0250696 0)
(0.986907 0.0220372 0)
(0.68746 0.00855425 0)
(0.220462 -0.00079477 0)
(0.217474 0.000714948 0)
(0.662217 -0.0052667 0)
(0.973281 -0.0167264 0)
(1.07915 -0.0193504 0)
(1.08942 -0.0179218 0)
(1.07714 -0.0149818 0)
(1.06369 -0.0116549 0)
(1.05319 -0.00793111 0)
(1.04544 -0.00376513 0)
(1.04067 0.00094496 0)
(1.04001 0.00602672 0)
(1.04357 0.010268 0)
(1.05048 0.0138715 0)
(1.05998 0.0167364 0)
(1.07314 0.0195741 0)
(1.08481 0.0219413 0)
(1.07308 0.0225109 0)
(0.963937 0.018871 0)
(0.650087 0.00619833 0)
(0.20963 -0.000510839 0)
(0.211025 0.000389065 0)
(0.6346 -0.00371407 0)
(0.954158 -0.0139667 0)
(1.07531 -0.0168317 0)
(1.09179 -0.0158704 0)
(1.08093 -0.0132869 0)
(1.06728 -0.0100672 0)
(1.05676 -0.00642512 0)
(1.04916 -0.00233639 0)
(1.0446 0.00212988 0)
(1.04364 0.00665208 0)
(1.04654 0.0105293 0)
(1.05288 0.0136966 0)
(1.06278 0.0163697 0)
(1.07588 0.018779 0)
(1.08549 0.0203158 0)
(1.06724 0.0203631 0)
(0.942399 0.0164324 0)
(0.619379 0.00476625 0)
(0.201281 -0.000159157 0)
(0.206404 0.00013375 0)
(0.613914 -0.00239106 0)
(0.938506 -0.0109957 0)
(1.07236 -0.0137887 0)
(1.0943 -0.0130543 0)
(1.08475 -0.0110047 0)
(1.07073 -0.00835474 0)
(1.05977 -0.0051187 0)
(1.05187 -0.001205 0)
(1.04708 0.00323813 0)
(1.04578 0.00750157 0)
(1.04838 0.0113017 0)
(1.05455 0.0141842 0)
(1.06446 0.016452 0)
(1.07764 0.017717 0)
(1.08597 0.0188051 0)
(1.0612 0.0185132 0)
(0.921822 0.0141539 0)
(0.593579 0.00374755 0)
(0.193964 0.000189997 0)
(0.203209 -2.08994e-06 0)
(0.599142 -0.00118189 0)
(0.924439 -0.00786304 0)
(1.06941 -0.0103843 0)
(1.09689 -0.00973733 0)
(1.08858 -0.00784889 0)
(1.0745 -0.00539357 0)
(1.06315 -0.00246038 0)
(1.05456 0.000912465 0)
(1.049 0.004926 0)
(1.04741 0.00866081 0)
(1.05023 0.0117794 0)
(1.05683 0.0138491 0)
(1.06659 0.015116 0)
(1.07961 0.0162888 0)
(1.08611 0.0167991 0)
(1.05512 0.0159731 0)
(0.903477 0.0115051 0)
(0.573915 0.0028343 0)
(0.187778 0.000356286 0)
(0.2018 -9.89353e-05 0)
(0.590065 -0.000163175 0)
(0.913955 -0.00444511 0)
(1.06732 -0.00664167 0)
(1.09935 -0.00598986 0)
(1.09228 -0.00424749 0)
(1.07877 -0.00203417 0)
(1.06763 0.000574887 0)
(1.05884 0.00347889 0)
(1.05278 0.00672097 0)
(1.05078 0.00961863 0)
(1.05326 0.011741 0)
(1.05941 0.0130759 0)
(1.06889 0.0140517 0)
(1.08111 0.0146972 0)
(1.0857 0.0148552 0)
(1.04862 0.0136374 0)
(0.886665 0.00903471 0)
(0.558672 0.00213172 0)
(0.182388 0.000386762 0)
(0.202021 -0.000144762 0)
(0.586875 0.000813226 0)
(0.906598 -0.00156909 0)
(1.06548 -0.00366782 0)
(1.10178 -0.0029777 0)
(1.09578 -0.00117893 0)
(1.08266 0.00105843 0)
(1.07169 0.00368 0)
(1.06302 0.00648093 0)
(1.05678 0.00926245 0)
(1.05412 0.0117016 0)
(1.05555 0.0131581 0)
(1.06069 0.0138383 0)
(1.06913 0.0142759 0)
(1.08074 0.0138058 0)
(1.08346 0.0133517 0)
(1.04063 0.0116696 0)
(0.871479 0.00712278 0)
(0.547288 0.00177629 0)
(0.178072 0.000379412 0)
(0.203691 0.000184861 0)
(0.587192 0.00128198 0)
(0.901655 0.000609063 0)
(1.06442 -0.000392682 0)
(1.10371 0.000383206 0)
(1.09847 0.00197569 0)
(1.08529 0.00405837 0)
(1.07403 0.00648244 0)
(1.06507 0.00920735 0)
(1.05847 0.011773 0)
(1.0552 0.0139611 0)
(1.05599 0.0148719 0)
(1.06057 0.0150661 0)
(1.06869 0.0147039 0)
(1.07963 0.0137396 0)
(1.08108 0.0129179 0)
(1.03341 0.0109342 0)
(0.858688 0.00625641 0)
(0.537685 0.00180938 0)
(0.174005 0.000407598 0)
(0.206776 0.000487091 0)
(0.589631 0.0019243 0)
(0.901424 0.00308863 0)
(1.06399 0.00243479 0)
(1.10583 0.00368549 0)
(1.10111 0.00550181 0)
(1.08765 0.00762565 0)
(1.07577 0.0100299 0)
(1.06612 0.0126709 0)
(1.05879 0.0150929 0)
(1.05476 0.0169095 0)
(1.05493 0.0172538 0)
(1.05926 0.0167534 0)
(1.06737 0.0157489 0)
(1.07741 0.0144236 0)
(1.07688 0.0128303 0)
(1.02452 0.0100932 0)
(0.845998 0.00559696 0)
(0.528864 0.00188232 0)
(0.170019 0.00041643 0)
(0.212437 0.000601939 0)
(0.596915 0.00280232 0)
(0.904436 0.00480368 0)
(1.06611 0.00574025 0)
(1.10867 0.00724661 0)
(1.10447 0.00913231 0)
(1.09099 0.0113957 0)
(1.07881 0.0139983 0)
(1.06851 0.0166302 0)
(1.06009 0.0189887 0)
(1.05483 0.0204011 0)
(1.05386 0.0201889 0)
(1.05753 0.0189431 0)
(1.06501 0.0171471 0)
(1.07425 0.0152785 0)
(1.07243 0.0133069 0)
(1.01688 0.0103002 0)
(0.835743 0.00583581 0)
(0.520621 0.00214927 0)
(0.165811 0.000437014 0)
(0.21795 0.000642754 0)
(0.604622 0.00325598 0)
(0.90915 0.00626614 0)
(1.06932 0.00777525 0)
(1.11256 0.00976343 0)
(1.10871 0.0122952 0)
(1.09521 0.0150874 0)
(1.08287 0.0182373 0)
(1.07211 0.0213683 0)
(1.06287 0.024105 0)
(1.05633 0.0252851 0)
(1.05377 0.0246614 0)
(1.05596 0.0228996 0)
(1.0624 0.0206472 0)
(1.07055 0.0180471 0)
(1.06646 0.0150579 0)
(1.00648 0.011163 0)
(0.822587 0.00648521 0)
(0.510477 0.00262255 0)
(0.160766 0.000510131 0)
(0.226394 0.000835997 0)
(0.618368 0.00415319 0)
(0.918799 0.00841171 0)
(1.07461 0.010889 0)
(1.11715 0.0130209 0)
(1.11352 0.0156767 0)
(1.0998 0.0188591 0)
(1.08698 0.0227449 0)
(1.07535 0.0265801 0)
(1.06473 0.0299472 0)
(1.05621 0.0312523 0)
(1.05228 0.0306026 0)
(1.05323 0.0283247 0)
(1.05867 0.0251595 0)
(1.06542 0.0217674 0)
(1.05969 0.0179436 0)
(0.997125 0.0133875 0)
(0.811792 0.00811896 0)
(0.500038 0.00335144 0)
(0.15487 0.000627389 0)
(0.235223 0.00113775 0)
(0.631595 0.00501421 0)
(0.929119 0.0102917 0)
(1.08106 0.0137165 0)
(1.12243 0.0166988 0)
(1.11876 0.0200169 0)
(1.1048 0.0242469 0)
(1.09133 0.0289219 0)
(1.07851 0.0336398 0)
(1.06634 0.0376613 0)
(1.05625 0.0389644 0)
(1.05071 0.0377549 0)
(1.04973 0.0348553 0)
(1.05378 0.0310465 0)
(1.05863 0.0270294 0)
(1.05005 0.0217291 0)
(0.982675 0.0158293 0)
(0.793919 0.00959057 0)
(0.484527 0.00409273 0)
(0.14691 0.00076561 0)
(0.248381 0.00146564 0)
(0.65168 0.00684122 0)
(0.944245 0.0136294 0)
(1.08952 0.018383 0)
(1.12855 0.0218111 0)
(1.12533 0.0260675 0)
(1.11137 0.0309512 0)
(1.09705 0.0367222 0)
(1.0826 0.0423013 0)
(1.06795 0.0466036 0)
(1.05501 0.0477039 0)
(1.04725 0.0460536 0)
(1.04504 0.0424112 0)
(1.04748 0.0372673 0)
(1.05024 0.0319426 0)
(1.03886 0.0254209 0)
(0.969122 0.0185979 0)
(0.779746 0.0116076 0)
(0.469787 0.00491527 0)
(0.138325 0.000868476 0)
(0.263929 0.00197785 0)
(0.675378 0.00827972 0)
(0.963105 0.0172491 0)
(1.10145 0.0235437 0)
(1.1376 0.0287343 0)
(1.1339 0.0339738 0)
(1.1194 0.0404647 0)
(1.10386 0.0473818 0)
(1.08745 0.0537341 0)
(1.07037 0.0582364 0)
(1.05523 0.0589327 0)
(1.04515 0.055979 0)
(1.03988 0.050909 0)
(1.03961 0.0448029 0)
(1.0397 0.0380317 0)
(1.02436 0.0303413 0)
(0.949294 0.0219904 0)
(0.754865 0.0136326 0)
(0.446884 0.00577565 0)
(0.126808 0.00100996 0)
(0.285664 0.00279298 0)
(0.707541 0.012079 0)
(0.988425 0.0232076 0)
(1.11688 0.0318556 0)
(1.14829 0.0380365 0)
(1.14426 0.0454189 0)
(1.12894 0.0532247 0)
(1.11164 0.0611434 0)
(1.09258 0.0681186 0)
(1.07204 0.0722327 0)
(1.05291 0.0717362 0)
(1.03961 0.0672173 0)
(1.03284 0.0608229 0)
(1.03033 0.052988 0)
(1.0273 0.0445204 0)
(1.00845 0.0352623 0)
(0.930538 0.0258283 0)
(0.735447 0.0164976 0)
(0.426534 0.00695037 0)
(0.115199 0.00109352 0)
(0.315834 0.00381711 0)
(0.750569 0.0149424 0)
(1.02085 0.0305056 0)
(1.13754 0.0417438 0)
(1.1639 0.0511563 0)
(1.15735 0.0608387 0)
(1.13984 0.0702757 0)
(1.11966 0.0792536 0)
(1.09724 0.0861467 0)
(1.0731 0.0892372 0)
(1.05101 0.0871186 0)
(1.035 0.0807719 0)
(1.02419 0.0719883 0)
(1.01821 0.0625505 0)
(1.01227 0.0525544 0)
(0.98921 0.042208 0)
(0.904713 0.0310802 0)
(0.700793 0.0196164 0)
(0.392704 0.00792579 0)
(0.0990854 0.00122827 0)
(0.352251 0.00764905 0)
(0.804314 0.0246176 0)
(1.06259 0.0431246 0)
(1.16442 0.0583655 0)
(1.18265 0.0696492 0)
(1.17269 0.0820779 0)
(1.15166 0.0930661 0)
(1.12771 0.102213 0)
(1.10109 0.108376 0)
(1.07236 0.109888 0)
(1.04553 0.105377 0)
(1.02551 0.0957953 0)
(1.0133 0.0849995 0)
(1.00517 0.0734309 0)
(0.995513 0.0615677 0)
(0.968002 0.049221 0)
(0.878389 0.036516 0)
(0.672586 0.023301 0)
(0.365379 0.00954514 0)
(0.0846495 0.00114583 0)
(0.434981 0.0113576 0)
(0.885908 0.0350072 0)
(1.11788 0.0629777 0)
(1.19753 0.0823608 0)
(1.20706 0.0964469 3.73026e-34)
(1.19026 0.112178 -1.75005e-34)
(1.16404 0.122906 0)
(1.13523 0.131188 0)
(1.10367 0.135443 0)
(1.07025 0.133876 0)
(1.03955 0.125548 0)
(1.01661 0.113584 0)
(0.999946 0.100025 0)
(0.987958 0.0865382 0)
(0.975556 0.0731035 0)
(0.943039 0.0596031 0)
(0.844173 0.0445592 0)
(0.623836 0.0281642 0)
(0.315088 0.00987391 0)
(0.062619 0.000874375 0)
(0.503697 0.0263274 2.17428e-20)
(0.979463 0.0591518 -1.67258e-20)
(1.17725 0.0954434 0)
(1.23302 0.118028 1.52047e-20)
(1.23278 0.135836 -1.23195e-20)
(1.20754 0.151369 1.8464e-34)
(1.17554 0.16081 0)
(1.14106 0.167308 1.07588e-20)
(1.10382 0.169069 -3.60193e-20)
(1.06482 0.164486 7.48252e-21)
(1.02907 0.153287 0)
(1.00137 0.137213 -2.03341e-20)
(0.982513 0.120796 -2.46505e-20)
(0.967942 0.104879 4.31605e-20)
(0.949542 0.0893643 -3.42905e-20)
(0.907752 0.0728879 0)
(0.794514 0.0546228 -1.26729e-20)
(0.560589 0.033657 0)
(0.263233 0.0132596 -6.91693e-20)
(0.0446783 0.00142696 8.17794e-20)
(0.535286 0.05456 -3.30006e-21)
(1.03553 0.102189 3.65027e-20)
(1.22219 0.146526 2.25949e-21)
(1.26515 0.166241 -2.86408e-20)
(1.25608 0.184379 -2.56687e-20)
(1.22283 0.197893 4.20826e-20)
(1.18474 0.20544 0)
(1.14418 0.210022 0)
(1.10112 0.209212 5.71929e-20)
(1.05629 0.201269 0)
(1.01422 0.185717 7.25352e-20)
(0.980943 0.16686 2.18164e-20)
(0.955715 0.14916 3.32114e-22)
(0.935011 0.132127 -4.76625e-20)
(0.914023 0.115829 0)
(0.869163 0.0993029 0)
(0.752855 0.0756943 -2.1015e-19)
(0.52602 0.0501097 5.26245e-19)
(0.249172 0.0205418 -3.12244e-19)
(0.0415672 0.00429187 -3.69416e-19)
(0.539748 0.0776307 3.36284e-21)
(1.06712 0.159384 1.94424e-21)
(1.2557 0.208082 4.04146e-21)
(1.29098 0.225525 4.8626e-20)
(1.27422 0.241201 1.38438e-20)
(1.23443 0.250656 -1.07405e-19)
(1.19064 0.25486 3.84312e-20)
(1.14423 0.256373 0)
(1.09538 0.252138 -1.20557e-19)
(1.04445 0.240979 1.1311e-19)
(0.997477 0.222939 -1.96604e-19)
(0.961208 0.203455 9.3275e-20)
(0.933955 0.18382 -6.30276e-20)
(0.911612 0.165188 1.40574e-19)
(0.884772 0.147175 0)
(0.835953 0.128658 -5.28015e-20)
(0.723538 0.104046 0)
(0.514072 0.0685676 2.95388e-19)
(0.252829 0.0342513 -7.0113e-19)
(0.0508473 0.0065591 4.39482e-19)
(0.529651 0.109755 -7.97286e-20)
(1.08198 0.217074 2.82366e-20)
(1.27551 0.273869 2.40493e-21)
(1.30826 0.289774 0)
(1.28629 0.302583 -3.88662e-20)
(1.24167 0.307312 4.9171e-20)
(1.19307 0.307456 -4.10611e-20)
(1.1416 0.305152 0)
(1.0877 0.297039 8.55666e-20)
(1.03148 0.28203 -7.90113e-20)
(0.979189 0.260491 1.71389e-19)
(0.936173 0.236415 0)
(0.902441 0.214603 -1.33605e-19)
(0.874568 0.195883 7.47248e-20)
(0.850384 0.179346 1.93624e-19)
(0.807189 0.162057 -1.70377e-19)
(0.704222 0.13481 2.76323e-19)
(0.511076 0.0941747 -6.12399e-19)
(0.26746 0.0498796 3.8755e-19)
(0.0629467 0.0119555 -4.8528e-19)
(0.515228 0.133981 7.38676e-20)
(1.08714 0.272143 -5.50981e-20)
(1.28593 0.34073 5.80102e-21)
(1.31744 0.355241 9.57957e-21)
(1.29176 0.365218 -2.17897e-20)
(1.2438 0.365427 1.30753e-20)
(1.19144 0.361596 3.64645e-21)
(1.13569 0.355366 -8.80213e-20)
(1.07703 0.343344 -8.88503e-20)
(1.01579 0.32462 -1.69948e-19)
(0.959144 0.300092 -3.68915e-19)
(0.915051 0.274932 -1.16781e-19)
(0.882901 0.254101 2.54684e-21)
(0.857889 0.235716 -2.60323e-19)
(0.827486 0.217137 -6.3442e-21)
(0.780693 0.195313 2.48578e-19)
(0.683273 0.164934 -7.60581e-20)
(0.506706 0.119736 -4.43404e-20)
(0.278791 0.0670385 0)
(0.0722194 0.0177731 1.03441e-18)
(0.496344 0.154803 0)
(1.07868 0.321863 2.20961e-20)
(1.28759 0.404269 0)
(1.32 0.419033 -1.23285e-20)
(1.29184 0.427145 1.31885e-20)
(1.2415 0.423364 -3.45156e-20)
(1.18624 0.415876 4.31044e-20)
(1.12717 0.405744 1.46473e-19)
(1.06499 0.38965 -5.03251e-20)
(1.00037 0.366917 8.1621e-20)
(0.940165 0.338132 1.98515e-19)
(0.891715 0.310361 2.55805e-19)
(0.853453 0.285834 -1.55765e-19)
(0.821372 0.263733 2.81816e-19)
(0.797523 0.245009 -2.24225e-19)
(0.760109 0.227556 0)
(0.67365 0.195927 -5.79038e-19)
(0.509243 0.146535 7.79037e-19)
(0.288516 0.0843507 5.84716e-20)
(0.0788932 0.0234423 -1.09296e-18)
(0.481847 0.175599 -5.31965e-21)
(1.07035 0.370992 -7.28365e-20)
(1.28481 0.465665 -1.5135e-19)
(1.31782 0.480674 5.76763e-20)
(1.28753 0.487141 1.97649e-20)
(1.2354 0.479873 -2.90879e-20)
(1.17794 0.469139 7.95167e-20)
(1.11637 0.455371 -3.89788e-20)
(1.05124 0.435583 -1.96574e-19)
(0.982934 0.409301 4.42082e-22)
(0.919489 0.377659 -2.15679e-19)
(0.869643 0.347306 -2.73837e-19)
(0.834038 0.321272 1.72784e-19)
(0.809185 0.30135 -1.01262e-19)
(0.779313 0.282861 2.43352e-19)
(0.736866 0.258623 0)
(0.653167 0.225485 -3.58588e-19)
(0.500822 0.171166 5.29891e-19)
(0.291699 0.100006 1.00922e-18)
(0.0823104 0.0286036 -1.18717e-18)
(0.466881 0.193138 -3.44388e-19)
(1.05625 0.415353 1.70586e-19)
(1.27773 0.523124 9.89541e-20)
(1.31192 0.539268 -6.5256e-20)
(1.27996 0.544763 1.12705e-20)
(1.22653 0.534455 -4.74701e-20)
(1.16741 0.520774 -4.9239e-20)
(1.10383 0.50368 -5.56748e-20)
(1.03616 0.480458 -1.12895e-19)
(0.96507 0.450171 1.85658e-19)
(0.899436 0.414279 2.13849e-19)
(0.848111 0.380245 4.32853e-19)
(0.809319 0.35289 0)
(0.775221 0.328946 5.71522e-21)
(0.751633 0.307576 -6.70019e-19)
(0.717934 0.288832 1.55004e-19)
(0.642576 0.253689 7.71178e-19)
(0.494431 0.19503 -2.26995e-19)
(0.286953 0.114271 4.77006e-19)
(0.0816443 0.0316218 -4.00013e-20)
(0.457836 0.212205 6.08959e-21)
(1.04511 0.459313 1.70413e-19)
(1.26885 0.578364 8.33145e-20)
(1.30347 0.595363 -1.50401e-19)
(1.26991 0.599658 4.48113e-20)
(1.21551 0.586565 3.87854e-20)
(1.15507 0.570368 4.92521e-20)
(1.08978 0.55031 1.59089e-19)
(1.0199 0.524038 2.20759e-19)
(0.946189 0.490717 -2.19612e-19)
(0.877821 0.45218 0)
(0.825371 0.415354 -1.65414e-19)
(0.787133 0.384792 1.8991e-19)
(0.763114 0.360926 2.44515e-19)
(0.733805 0.340008 -1.40917e-19)
(0.69457 0.313834 -3.48632e-19)
(0.62028 0.278106 -1.04914e-19)
(0.480374 0.21289 -1.24091e-21)
(0.277704 0.12387 0)
(0.0781447 0.0338337 0)
(0.449343 0.227759 -1.93029e-19)
(1.03175 0.499288 0)
(1.25763 0.629646 1.04866e-19)
(1.29289 0.648168 -5.52937e-20)
(1.25808 0.651644 -3.92174e-20)
(1.20299 0.636124 1.29021e-20)
(1.14148 0.617717 4.67858e-20)
(1.07483 0.59505 -1.03566e-19)
(1.00336 0.565986 1.60743e-19)
(0.928402 0.529284 -7.64216e-20)
(0.859054 0.485534 1.2125e-19)
(0.804057 0.445744 5.2139e-19)
(0.763923 0.41373 1.35615e-20)
(0.728469 0.385283 -2.52973e-19)
(0.706461 0.362079 4.75358e-19)
(0.67643 0.340462 4.49505e-21)
(0.607548 0.298963 1.12245e-19)
(0.467949 0.230264 -5.39593e-19)
(0.26715 0.130797 5.48609e-19)
(0.0732365 0.0354262 -6.53839e-19)
(0.443108 0.246757 3.66966e-23)
(1.02055 0.53875 0)
(1.24595 0.678921 0)
(1.28098 0.69868 4.44698e-20)
(1.24503 0.70091 2.45195e-20)
(1.18947 0.682938 6.07504e-21)
(1.12711 0.6626 -7.48176e-20)
(1.05939 0.637691 0)
(0.986351 0.606139 -2.41617e-19)
(0.90829 0.56648 3.18235e-19)
(0.834191 0.521531 3.51641e-19)
(0.778 0.478589 -1.93141e-19)
(0.739379 0.441211 -2.36019e-19)
(0.715048 0.414525 5.54825e-19)
(0.687323 0.39016 -1.68526e-19)
(0.651071 0.358676 -2.02653e-19)
(0.582306 0.318351 -1.22548e-19)
(0.449034 0.241435 -5.82946e-19)
(0.254141 0.135576 8.33248e-20)
(0.0674628 0.0357737 7.07346e-19)
(0.439371 0.265406 -8.10421e-20)
(1.00886 0.574807 -1.22939e-19)
(1.23302 0.724241 2.35167e-20)
(1.26818 0.745808 -5.82702e-24)
(1.23144 0.747271 -1.12869e-20)
(1.17543 0.727242 -2.32569e-20)
(1.11228 0.705161 0)
(1.0435 0.678219 6.40912e-20)
(0.968721 0.644667 -5.0537e-20)
(0.889037 0.603064 5.21655e-19)
(0.81524 0.554125 -8.30154e-20)
(0.757721 0.505859 9.31403e-20)
(0.714926 0.468691 0)
(0.68015 0.434167 -3.01161e-19)
(0.658694 0.405282 3.68347e-19)
(0.631528 0.381129 0)
(0.566584 0.331727 -2.66116e-19)
(0.43125 0.252438 7.80384e-19)
(0.240233 0.13829 9.21946e-20)
(0.0612388 0.0352253 -8.72834e-19)
(0.437454 0.2823 -1.86269e-19)
(0.999346 0.610333 2.39422e-19)
(1.22042 0.767837 0)
(1.25498 0.79078 1.21969e-19)
(1.21746 0.791165 0)
(1.16117 0.769069 4.76118e-22)
(1.09734 0.745367 0)
(1.02768 0.716701 0)
(0.951975 0.681461 -7.53471e-20)
(0.870717 0.637323 -4.99137e-19)
(0.792541 0.584442 -6.50681e-19)
(0.730952 0.535513 1.1166e-19)
(0.689227 0.491727 4.07316e-19)
(0.665843 0.458674 3.33996e-19)
(0.639322 0.43016 -1.18198e-18)
(0.604617 0.393482 -4.80742e-19)
(0.538604 0.346356 2.80467e-19)
(0.408794 0.257702 0)
(0.224985 0.139051 7.96143e-19)
(0.0547285 0.0337874 -9.43164e-19)
(0.436036 0.298085 2.10576e-19)
(0.989063 0.642443 -2.67624e-19)
(1.20738 0.807525 0)
(1.24166 0.832395 -1.03855e-20)
(1.20358 0.832289 -4.72543e-20)
(1.14695 0.808587 0)
(1.08249 0.783436 2.23889e-20)
(1.012 0.753172 4.92429e-20)
(0.934429 0.716018 -1.31633e-19)
(0.849557 0.670157 6.16581e-20)
(0.768564 0.616537 0)
(0.707342 0.562943 4.56451e-19)
(0.665857 0.517044 4.21871e-21)
(0.628539 0.476457 1.80665e-19)
(0.608501 0.440821 2.15751e-19)
(0.583205 0.411788 0)
(0.520415 0.35286 -4.65724e-19)
(0.388841 0.262766 9.13634e-19)
(0.209113 0.13787 -9.69376e-19)
(0.0484552 0.0316403 2.03801e-18)
(0.43499 0.313092 0)
(0.980598 0.674437 0)
(1.19506 0.845727 -1.4268e-19)
(1.2284 0.871967 0)
(1.18969 0.871086 0)
(1.1329 0.84584 4.99642e-20)
(1.068 0.819416 2.12198e-20)
(0.996584 0.787669 1.71902e-20)
(0.917919 0.749734 -2.68409e-20)
(0.832648 0.703028 0)
(0.750969 0.647329 -1.00416e-19)
(0.684849 0.590294 -3.74337e-19)
(0.634977 0.540159 -4.56924e-19)
(0.612186 0.497577 -1.85771e-19)
(0.587136 0.462504 2.35506e-19)
(0.55461 0.416478 -5.57164e-19)
(0.490634 0.36287 1.00463e-18)
(0.363734 0.262229 5.47318e-21)
(0.192922 0.134727 -9.34015e-19)
(0.0424812 0.0291052 -1.38207e-19)
(0.433828 0.327764 0)
(0.971501 0.703459 -2.1191e-19)
(1.18263 0.880489 1.63165e-19)
(1.21531 0.908449 0)
(1.17615 0.907264 0)
(1.11918 0.880876 -1.24366e-19)
(1.05375 0.853375 0)
(0.981793 0.82047 0)
(0.902074 0.781128 -2.77212e-19)
(0.81432 0.732469 9.20487e-20)
(0.727132 0.674027 -8.611e-19)
(0.657741 0.615444 0)
(0.613794 0.562199 -4.95137e-19)
(0.572493 0.513916 1.13231e-20)
(0.552372 0.466727 -7.54551e-19)
(0.530435 0.430059 3.0082e-19)
(0.471417 0.359735 3.12366e-21)
(0.345537 0.260463 -1.06498e-18)
(0.178696 0.130344 5.04953e-19)
(0.0376594 0.0267848 1.47909e-19)
(0.432811 0.341961 0)
(0.963967 0.732392 -2.62936e-19)
(1.17095 0.914043 1.73606e-19)
(1.20252 0.94309 3.29049e-19)
(1.16284 0.941252 4.92485e-20)
(1.10581 0.913788 -2.63943e-20)
(1.04027 0.885429 6.3534e-21)
(0.967879 0.851519 1.90023e-19)
(0.886951 0.81148 2.96538e-19)
(0.797056 0.76331 6.6213e-19)
(0.708631 0.705564 7.15184e-19)
(0.637294 0.644473 1.28945e-19)
(0.579914 0.586304 7.14802e-19)
(0.553377 0.532937 4.49243e-19)
(0.528365 0.486436 5.42987e-19)
(0.498313 0.42548 -3.32769e-19)
(0.439575 0.36167 -3.91392e-19)
(0.320693 0.251044 4.58952e-19)
(0.164118 0.122496 -2.71278e-19)
(0.0353591 0.0276935 4.80549e-19)
(0.431672 0.355723 3.54063e-19)
(0.955908 0.758491 4.15774e-19)
(1.15925 0.944608 9.70887e-20)
(1.19002 0.975003 1.62486e-20)
(1.14999 0.972857 -1.89566e-19)
(1.093 0.944574 3.75607e-20)
(1.02719 0.915488 -1.05932e-20)
(0.954236 0.880748 -2.13904e-20)
(0.872493 0.839931 -3.32998e-19)
(0.781561 0.789845 -7.234e-19)
(0.690439 0.729677 4.75168e-20)
(0.611989 0.668018 0)
(0.558196 0.609291 0)
(0.510023 0.549948 -2.31802e-19)
(0.486476 0.486242 -8.89446e-19)
(0.467447 0.43313 7.19554e-19)
(0.420448 0.338638 4.33289e-19)
(0.318351 0.230774 0)
(0.171039 0.101014 8.65634e-19)
(0.0295026 0.0061087 -5.16609e-19)
(0.430706 0.36876 -1.88716e-19)
(0.949078 0.784331 1.64578e-19)
(1.14826 0.974115 -2.21279e-19)
(1.17796 1.00529 -2.21448e-19)
(1.13756 1.00246 -8.33599e-20)
(1.08056 0.973358 5.78934e-21)
(1.01476 0.943749 0)
(0.941679 0.9084 -2.28482e-19)
(0.859166 0.867314 4.34125e-20)
(0.766014 0.818368 0)
(0.670306 0.761153 0)
(0.588696 0.697785 8.44511e-20)
(0.524046 0.632212 1.19012e-19)
(0.488186 0.568409 -2.49956e-19)
(0.457112 0.507827 6.40499e-19)
(0.425799 0.418862 -7.87205e-19)
(0.377547 0.325994 -9.27944e-19)
(0.303933 0.206096 8.20156e-19)
(0.20621 0.124502 -3.10544e-19)
(0.118128 0.088218 1.7992e-19)
(0.429464 0.381051 2.24476e-19)
(0.941712 0.807451 0)
(1.13732 1.00092 0)
(1.16626 1.03317 -7.1706e-20)
(1.12562 1.03001 5.80454e-20)
(1.06879 1.00024 -2.08995e-20)
(1.00292 0.97012 -3.06561e-20)
(0.929585 0.934336 1.95836e-19)
(0.846358 0.892751 5.76818e-19)
(0.752372 0.842639 -5.51312e-20)
(0.656055 0.781834 1.18551e-19)
(0.570637 0.720074 -7.33361e-19)
(0.504097 0.658944 -7.5441e-19)
(0.441078 0.591493 -1.33603e-19)
(0.402289 0.506629 0)
(0.375832 0.429264 -1.17179e-20)
(0.339885 0.270186 5.09629e-19)
(0.295097 0.107079 -8.60106e-19)
(0.254579 -0.0425789 6.48002e-19)
(0.079745 -0.0917298 5.3109e-19)
(0.428353 0.392736 -4.91753e-19)
(0.935301 0.830342 -2.15864e-19)
(1.127 1.02691 6.6138e-21)
(1.15498 1.05982 1.03052e-19)
(1.11406 1.05605 0)
(1.05727 1.02567 1.859e-19)
(0.991438 0.9953 2.35398e-20)
(0.917959 0.959212 -2.33642e-20)
(0.834057 0.917799 -2.9497e-19)
(0.737556 0.868695 -5.34573e-20)
(0.635829 0.813418 4.96514e-20)
(0.545459 0.751917 6.45411e-19)
(0.467467 0.684657 7.36878e-19)
(0.417431 0.613085 1.29332e-19)
(0.369179 0.541194 6.8189e-19)
(0.307117 0.415393 0)
(0.203727 0.263224 0)
(0.0348126 0.261552 6.12599e-19)
(-0.0703859 0.628981 -3.31932e-20)
(0.00189902 1.51194 -7.62666e-19)
(0.426838 0.403833 2.69157e-19)
(0.928438 0.850896 6.32298e-19)
(1.11671 1.05069 -9.22542e-19)
(1.14395 1.08469 5.26763e-19)
(1.10282 1.08083 -4.8777e-20)
(1.04617 1.05011 2.78752e-19)
(0.980241 1.01956 0)
(0.906519 0.983504 -1.40784e-19)
(0.821949 0.942311 0)
(0.725173 0.893354 6.91731e-19)
(0.624441 0.835017 -6.44729e-20)
(0.53081 0.775384 7.22907e-20)
(0.451185 0.718863 8.30527e-19)
(0.364891 0.653246 -2.8497e-19)
(0.279448 0.554875 -3.51447e-19)
(0.209123 0.477333 0)
(0.105201 0.567575 0)
(0.0348046 1.26849 0)
(0.0770914 2.4358 -3.4683e-19)
(0.10708 2.89736 -2.13559e-19)
(0.425415 0.414426 0)
(0.922447 0.87124 0)
(1.10704 1.07383 3.3227e-19)
(1.13338 1.10854 -4.36005e-19)
(1.09199 1.10434 2.71695e-19)
(1.03536 1.07336 -2.50981e-19)
(0.969455 1.04295 -1.38725e-21)
(0.895599 1.00707 1.08011e-21)
(0.810585 0.966491 4.31536e-20)
(0.711866 0.919413 -7.92444e-19)
(0.604838 0.866965 1.11327e-19)
(0.504436 0.812252 6.2902e-19)
(0.41172 0.752542 -8.2456e-19)
(0.341447 0.679118 -9.22725e-19)
(0.273399 0.619717 3.15485e-19)
(0.20539 0.740248 0)
(0.140288 1.50483 4.48057e-19)
(0.138156 2.67452 5.00294e-19)
(0.145013 3.08144 -5.59858e-19)
(0.135633 3.2192 6.11591e-19)
(0.423607 0.424303 0)
(0.916033 0.889286 5.30158e-19)
(1.09742 1.09484 -8.53076e-20)
(1.12313 1.1307 5.66934e-19)
(1.08154 1.12666 -2.85187e-19)
(1.02505 1.09566 0)
(0.959064 1.06537 0)
(0.88509 1.02989 0)
(0.799636 0.990337 1.88723e-19)
(0.700522 0.944052 3.14229e-20)
(0.594332 0.890624 0)
(0.494609 0.837177 -6.22155e-19)
(0.406896 0.78943 0)
(0.295641 0.735546 6.59355e-19)
(0.214192 0.812177 -4.36944e-19)
(0.169496 1.44702 -3.579e-19)
(0.174018 2.66442 -8.61254e-19)
(0.193636 3.12592 -4.46028e-19)
(0.183967 3.27079 -5.77761e-19)
(0.168813 3.31168 4.72751e-19)
(0.421969 0.433549 -1.81409e-19)
(0.910446 0.907208 1.5267e-20)
(1.08845 1.11538 -9.29457e-20)
(1.11335 1.15197 -4.49167e-19)
(1.07152 1.14782 0)
(1.01509 1.11686 0)
(0.949174 1.08703 0)
(0.875177 1.05215 9.77007e-21)
(0.789521 1.01344 -2.43269e-19)
(0.688999 0.969713 0)
(0.57861 0.92276 0)
(0.472309 0.877562 0)
(0.363536 0.831261 0)
(0.306934 0.822539 4.62163e-19)
(0.284185 1.18233 1.1623e-18)
(0.270054 2.34457 3.52534e-19)
(0.280912 3.08129 6.89404e-19)
(0.27375 3.28977 -4.99259e-19)
(0.223222 3.35752 1.85614e-19)
(0.189248 3.37011 0)
(0.420003 0.442287 1.85008e-19)
(0.904214 0.92334 -1.15649e-18)
(1.07928 1.13444 -3.21467e-19)
(1.10367 1.17226 -7.57788e-20)
(1.06168 1.16849 7.18642e-20)
(1.00543 1.13775 -4.6372e-19)
(0.939496 1.10826 2.71145e-20)
(0.865536 1.07398 4.26243e-21)
(0.779632 1.03687 0)
(0.679194 0.994879 -4.57513e-20)
(0.569732 0.947614 4.16194e-20)
(0.465188 0.902043 0)
(0.381928 0.87387 0)
(0.326973 0.997214 -5.76299e-19)
(0.290956 1.83783 4.63937e-20)
(0.287824 2.93136 -2.37048e-19)
(0.306716 3.2944 4.64466e-19)
(0.279676 3.39642 3.00067e-19)
(0.212031 3.42196 -3.17226e-19)
(0.186108 3.43062 1.56985e-19)
(0.41791 0.451111 3.59542e-19)
(0.898248 0.941022 1.11451e-18)
(1.06996 1.15485 3.92032e-19)
(1.09365 1.19333 0)
(1.0515 1.18946 0)
(0.995422 1.1588 3.55959e-19)
(0.92972 1.12986 -1.6607e-19)
(0.855945 1.09637 -9.24731e-21)
(0.770256 1.06013 3.94486e-21)
(0.66899 1.02043 5.04471e-19)
(0.557166 0.980505 -7.0497e-19)
(0.446085 0.94492 0)
(0.363148 0.948588 0)
(0.344995 1.34407 -3.67632e-19)
(0.355016 2.45071 -4.54006e-19)
(0.396282 3.19945 0)
(0.421708 3.38159 -3.3152e-19)
(0.351926 3.44623 1.30583e-19)
(0.277832 3.49049 -5.54967e-20)
(0.253449 3.51651 7.62768e-20)
(0.415039 0.460364 -6.82665e-19)
(0.890753 0.958093 -5.32206e-19)
(1.05944 1.17521 0)
(1.08279 1.21493 0)
(1.04064 1.21141 0)
(0.984901 1.18083 0)
(0.919401 1.15209 1.73592e-19)
(0.846013 1.11902 -8.46251e-20)
(0.760422 1.08438 0)
(0.659977 1.0474 -4.56617e-19)
(0.550095 1.00779 1.24344e-18)
(0.449325 0.97596 5.31846e-20)
(0.399019 1.06265 7.4555e-20)
(0.402185 1.73005 5.83226e-19)
(0.422184 2.88329 -2.75236e-19)
(0.458953 3.32837 0)
(0.441512 3.45807 6.6659e-20)
(0.352351 3.54686 9.77989e-20)
(0.269658 3.61515 2.51687e-19)
(0.193779 3.59508 -1.58502e-19)
(0.412019 0.469743 3.24317e-19)
(0.883328 0.977742 -5.31359e-19)
(1.04839 1.19781 0)
(1.0711 1.23786 -1.18575e-19)
(1.02892 1.23399 4.37785e-19)
(0.973573 1.20324 0)
(0.908579 1.17487 0)
(0.835667 1.14244 1.79288e-19)
(0.75087 1.10864 -2.11161e-20)
(0.650788 1.07317 3.91997e-19)
(0.53749 1.03954 -5.79822e-19)
(0.446961 1.03149 3.55993e-19)
(0.40925 1.2376 0)
(0.443108 2.14833 -2.99406e-19)
(0.489688 3.13916 2.10185e-19)
(0.550056 3.43571 7.34297e-20)
(0.543573 3.53798 0)
(0.475432 3.62909 -1.18764e-19)
(0.400437 3.67367 -5.95608e-19)