/*--------------------------------*- C++ -*----------------------------------*\
| =========                 |                                                 |
| \\      /  F ield         | OpenFOAM: The Open Source CFD Toolbox           |
|  \\    /   O peration     | Version:  v2012                                 |
|   \\  /    A nd           | Website:  www.openfoam.com                      |
|    \\/     M anipulation  |                                                 |
\*---------------------------------------------------------------------------*/
FoamFile
{
    version     2.0;
    format      ascii;
    class       volScalarField;
    location    "67";
    object      p;
}
// * * * * * * * * * * * * * * * * * * * * * * * * * * * * * * * * * * * * * //

dimensions      [0 2 -2 0 0 0 0];


internalField   nonuniform List<scalar> 
2200
(
0.771164
0.749666
0.733762
0.718099
0.703495
0.690987
0.680648
0.672562
0.666884
0.663966
0.6645
0.668336
0.674702
0.683278
0.693971
0.706754
0.721554
0.737491
0.753539
0.775037
0.703586
0.700329
0.697407
0.693293
0.687839
0.681374
0.67477
0.668838
0.664363
0.662026
0.662535
0.665896
0.6711
0.677581
0.684581
0.691343
0.697007
0.701102
0.703952
0.707316
0.663647
0.663868
0.665932
0.667283
0.667681
0.666838
0.664871
0.662214
0.659699
0.658247
0.658844
0.661345
0.664668
0.667922
0.670272
0.671282
0.671019
0.67002
0.668377
0.66813
0.641138
0.642591
0.64519
0.647647
0.650101
0.652134
0.653308
0.653566
0.653229
0.652981
0.653672
0.655093
0.656332
0.656751
0.656088
0.654428
0.652282
0.65011
0.647509
0.646104
0.626758
0.62873
0.631554
0.634399
0.63727
0.640116
0.642596
0.644486
0.645753
0.646603
0.647403
0.647928
0.647731
0.646665
0.644832
0.642475
0.639934
0.637212
0.634423
0.632501
0.61938
0.620978
0.623188
0.625727
0.628407
0.631096
0.633713
0.636165
0.63823
0.639811
0.640744
0.640833
0.64005
0.638572
0.636712
0.634599
0.632287
0.62995
0.627852
0.626278
0.615905
0.616927
0.618203
0.620081
0.622243
0.624433
0.626661
0.629
0.631275
0.633185
0.634301
0.63439
0.633682
0.632527
0.631173
0.629645
0.62797
0.626407
0.6253
0.624282
0.613189
0.613857
0.614496
0.615812
0.617446
0.61916
0.62095
0.622926
0.625065
0.627118
0.628463
0.628869
0.628619
0.628055
0.627321
0.626411
0.625383
0.624475
0.624037
0.623359
0.609875
0.610319
0.610723
0.611734
0.613019
0.614434
0.615977
0.617705
0.619641
0.621717
0.623347
0.624235
0.624582
0.624601
0.624374
0.623946
0.6234
0.622892
0.622713
0.622248
0.605746
0.606042
0.606405
0.607287
0.608418
0.60972
0.611199
0.612872
0.614767
0.616912
0.618923
0.620371
0.621255
0.621719
0.621873
0.621793
0.621539
0.621241
0.621124
0.620798
0.600933
0.601134
0.601511
0.602356
0.603472
0.604815
0.606388
0.608198
0.610267
0.612646
0.615089
0.617068
0.618408
0.619229
0.619652
0.619807
0.619739
0.619596
0.619504
0.619264
0.595616
0.59576
0.596136
0.596961
0.598128
0.599597
0.601362
0.603426
0.605822
0.608647
0.611634
0.614135
0.615891
0.617034
0.61771
0.618054
0.618199
0.618204
0.618146
0.617953
0.589874
0.589983
0.590366
0.5912
0.592449
0.59408
0.596086
0.598497
0.601369
0.604772
0.608407
0.611494
0.613705
0.615189
0.616157
0.616759
0.617119
0.617264
0.617251
0.617078
0.583704
0.58377
0.58416
0.585025
0.586381
0.588193
0.59047
0.593273
0.596718
0.600857
0.605311
0.609081
0.61182
0.613755
0.615116
0.616034
0.616643
0.61694
0.616968
0.616801
0.576956
0.576992
0.577418
0.578339
0.57986
0.581907
0.584511
0.587795
0.591923
0.596964
0.602342
0.60692
0.610343
0.612842
0.614675
0.615974
0.616848
0.617302
0.617379
0.617213
0.569611
0.569571
0.570008
0.571035
0.572768
0.575081
0.578057
0.581883
0.586763
0.592808
0.599351
0.604995
0.609267
0.612498
0.614915
0.616656
0.617836
0.618457
0.618583
0.61841
0.561323
0.561323
0.561756
0.562862
0.564847
0.567478
0.57093
0.575428
0.581237
0.588518
0.596436
0.603337
0.608678
0.61276
0.615838
0.61811
0.619638
0.620438
0.620621
0.620437
0.551909
0.551926
0.552385
0.553653
0.555936
0.559014
0.563106
0.568456
0.575389
0.584163
0.593743
0.602155
0.608729
0.613762
0.617617
0.620454
0.622385
0.623376
0.623609
0.623405
0.540985
0.540958
0.54153
0.543021
0.545655
0.549309
0.554217
0.56065
0.568978
0.579508
0.591171
0.601367
0.609332
0.615505
0.620218
0.623744
0.626123
0.627301
0.627582
0.627353
0.527958
0.527886
0.52857
0.530441
0.533669
0.538133
0.544129
0.551991
0.562154
0.574908
0.588851
0.601102
0.610684
0.618118
0.623826
0.628077
0.630935
0.632308
0.632621
0.632363
0.512641
0.512536
0.513307
0.515522
0.519478
0.525027
0.532473
0.542204
0.554698
0.570217
0.586885
0.601431
0.612757
0.621591
0.628383
0.633497
0.636872
0.638414
0.63874
0.638447
0.493934
0.493859
0.494883
0.497667
0.5026
0.509592
0.519018
0.531277
0.546777
0.565571
0.585399
0.602428
0.6157
0.626022
0.634021
0.64002
0.643881
0.645585
0.645894
0.645572
0.47083
0.470675
0.472005
0.47565
0.482133
0.491319
0.503508
0.519076
0.538257
0.560915
0.584331
0.604211
0.619582
0.631485
0.640723
0.647615
0.651938
0.653738
0.653986
0.653638
0.441166
0.441196
0.443301
0.448375
0.457157
0.469489
0.485523
0.505379
0.529045
0.556245
0.583672
0.60658
0.624139
0.637786
0.64837
0.656154
0.660824
0.662672
0.662826
0.66246
0.401949
0.4022
0.405765
0.41379
0.426614
0.443904
0.465261
0.490574
0.519641
0.551993
0.583798
0.609885
0.629764
0.6451
0.656935
0.66547
0.670339
0.672093
0.672127
0.671765
0.349784
0.350233
0.357323
0.37067
0.390072
0.414667
0.443098
0.475078
0.510356
0.548382
0.584741
0.614099
0.636219
0.653255
0.666301
0.67536
0.680046
0.681408
0.681293
0.680997
0.281556
0.284316
0.299567
0.321286
0.349631
0.383141
0.419771
0.459218
0.501363
0.545718
0.587209
0.620199
0.645107
0.664188
0.678481
0.687997
0.69233
0.693117
0.693019
0.692809
0.203862
0.213602
0.239121
0.270587
0.30914
0.351838
0.396721
0.443938
0.493404
0.54443
0.591493
0.628791
0.656784
0.677909
0.693668
0.703385
0.707208
0.707457
0.707482
0.707357
0.134761
0.149422
0.181376
0.22195
0.270216
0.321808
0.374831
0.429798
0.486469
0.544116
0.596692
0.638035
0.668597
0.691711
0.708398
0.718062
0.721553
0.721547
0.721693
0.721642
0.0820992
0.0956121
0.132357
0.179023
0.23477
0.294028
0.354501
0.416709
0.480279
0.544445
0.602381
0.647398
0.680611
0.705385
0.723064
0.733111
0.736174
0.736478
0.736719
0.736692
0.038504
0.0512346
0.0919627
0.14262
0.20383
0.269039
0.335958
0.404733
0.474678
0.544743
0.607606
0.656323
0.692266
0.718833
0.737731
0.748193
0.751828
0.752435
0.752467
0.752527
0.00157448
0.0143804
0.0577619
0.111298
0.176876
0.246969
0.319402
0.393824
0.469348
0.544854
0.612719
0.665197
0.703481
0.731739
0.751977
0.76317
0.767036
0.767666
0.767694
0.767759
-0.0307339
-0.017684
0.0278828
0.0840283
0.153269
0.22738
0.304428
0.383701
0.464345
0.545308
0.618086
0.673757
0.714222
0.744133
0.765558
0.777013
0.781261
0.781949
0.782012
0.782058
-0.0591895
-0.0462466
0.00102736
0.0596043
0.132033
0.209619
0.290715
0.374386
0.459887
0.545938
0.622934
0.681568
0.724289
0.755401
0.777668
0.789738
0.79419
0.794997
0.795048
0.79508
-0.0851869
-0.0722042
-0.0236439
0.0372997
0.11256
0.193237
0.277965
0.36564
0.455485
0.545877
0.626824
0.688608
0.733343
0.765731
0.788374
0.800908
0.805724
0.806623
0.80669
0.806705
-0.109105
-0.0960329
-0.0466699
0.0165085
0.0942783
0.177768
0.265771
0.356934
0.450536
0.545024
0.630196
0.695042
0.741494
0.774837
0.797863
0.810955
0.815861
0.81688
0.816947
0.81694
-0.131684
-0.118268
-0.0682716
-0.00309622
0.076863
0.162871
0.253721
0.34791
0.444992
0.543618
0.63291
0.700701
0.748866
0.78339
0.806591
0.819816
0.824834
0.825895
0.825952
0.825921
-0.152949
-0.139305
-0.0886744
-0.0217962
0.059997
0.148204
0.241564
0.338527
0.438906
0.5414
0.634657
0.70573
0.75592
0.791251
0.814703
0.827839
0.83268
0.833783
0.833819
0.833764
-0.173071
-0.159441
-0.108086
-0.0398077
0.0435182
0.133665
0.229284
0.328818
0.432241
0.538352
0.635672
0.710175
0.762583
0.799036
0.822443
0.834908
0.839766
0.840647
0.840703
0.840607
-0.192406
-0.178573
-0.126702
-0.0572841
0.0273482
0.119209
0.216874
0.318778
0.424997
0.534492
0.635818
0.714012
0.769149
0.806718
0.829933
0.841805
0.845954
0.846714
0.846651
0.846567
-0.211371
-0.196974
-0.144684
-0.0742871
0.0114882
0.104874
0.204371
0.308395
0.417106
0.529744
0.635096
0.717313
0.775604
0.814931
0.837894
0.848526
0.851656
0.851932
0.851932
0.851953
-0.229897
-0.214773
-0.16213
-0.0908342
-0.00404123
0.0906699
0.191746
0.297618
0.408575
0.52415
0.63341
0.719901
0.782013
0.823686
0.84682
0.856138
0.857158
0.856753
0.856477
0.856317
-0.247992
-0.232178
-0.179101
-0.106933
-0.0192396
0.0766042
0.179014
0.286487
0.39947
0.517722
0.630672
0.721667
0.788115
0.833269
0.857659
0.865204
0.863688
0.861996
0.861803
0.862837
-0.265451
-0.249127
-0.195589
-0.12259
-0.0341035
0.0626886
0.1662
0.275058
0.389877
0.510522
0.626783
0.722329
0.793808
0.843478
0.870712
0.877744
0.873378
0.866409
0.861691
0.860866
-0.282332
-0.265618
-0.211573
-0.137799
-0.0486256
0.0489571
0.153388
0.263445
0.379888
0.502606
0.621726
0.721688
0.798434
0.854084
0.886213
0.894725
0.889999
0.879553
0.879943
0.884105
-0.298559
-0.281509
-0.226985
-0.152531
-0.062765
0.0354755
0.140663
0.251733
0.369558
0.494013
0.615517
0.719422
0.801727
0.864053
0.903078
0.916439
0.911015
0.881811
0.844497
0.812148
-0.314143
-0.296848
-0.241861
-0.166842
-0.0766064
0.0221435
0.127912
0.239769
0.358664
0.484536
0.607988
0.715151
0.802488
0.872484
0.92073
0.941983
0.949946
0.92351
0.941102
1.0034
-0.329005
-0.311607
-0.256264
-0.180863
-0.0903125
0.00875831
0.114868
0.227194
0.346755
0.473603
0.598481
0.707981
0.799713
0.876381
0.930939
0.957075
0.956862
0.927811
0.883199
0.900707
-0.343155
-0.325819
-0.270164
-0.194527
-0.103798
-0.00458564
0.101644
0.214137
0.33395
0.461267
0.586941
0.697703
0.791148
0.871096
0.927327
0.954096
0.932659
0.872836
0.806397
0.793257
-0.356552
-0.339415
-0.283538
-0.207837
-0.117062
-0.0178861
0.0882418
0.200606
0.320271
0.447503
0.573211
0.683873
0.776435
0.853008
0.904256
0.904668
0.864272
0.782521
0.70559
0.679714
-0.369256
-0.35245
-0.296424
-0.220809
-0.13013
-0.0311706
0.0746526
0.186623
0.305761
0.432328
0.557182
0.666211
0.754056
0.819206
0.845743
0.827972
0.762814
0.65781
0.568252
0.543731
-0.381685
-0.365252
-0.309176
-0.233809
-0.143355
-0.044745
0.0606112
0.17196
0.290233
0.415559
0.538616
0.644073
0.72477
0.773578
0.766452
0.727714
0.610451
0.484663
0.374988
0.34571
-0.394704
-0.378677
-0.322512
-0.247431
-0.157281
-0.0590819
0.0457207
0.156299
0.273439
0.397022
0.517283
0.617055
0.6905
0.713746
0.679181
0.586271
0.42657
0.271104
0.139429
0.109954
-0.408805
-0.392986
-0.336679
-0.261915
-0.17209
-0.0742958
0.0299069
0.139593
0.255368
0.376702
0.493047
0.586027
0.648701
0.642631
0.589498
0.435509
0.233335
0.0188247
-0.162657
-0.21283
-0.424131
-0.40843
-0.351815
-0.277267
-0.187745
-0.0903626
0.0131957
0.121884
0.236083
0.35471
0.465963
0.55246
0.599817
0.561871
0.472866
0.28262
0.0504238
-0.239188
-0.560229
-0.710003
-0.44073
-0.424927
-0.367951
-0.293603
-0.204327
-0.107339
-0.00447548
0.1031
0.215526
0.331039
0.436247
0.516012
0.545011
0.476596
0.337832
0.131445
-0.102435
-0.446183
-1.03087
-1.60151
-0.45872
-0.442773
-0.385263
-0.310955
-0.22184
-0.125233
-0.0230849
0.0833226
0.193863
0.306091
0.405086
0.476616
0.486163
0.401604
0.208194
-0.0255199
-0.227888
-0.461793
-1.013
-2.51421
-0.478098
-0.461808
-0.403736
-0.329493
-0.240474
-0.144237
-0.0428657
0.0622671
0.170754
0.279475
0.372292
0.433888
0.422284
0.342605
0.114641
-0.122683
-0.270613
-0.307905
-0.296764
-0.681027
-0.498819
-0.482464
-0.423688
-0.349461
-0.260594
-0.164858
-0.0644493
0.0391733
0.14527
0.249906
0.336907
0.387637
0.359698
0.291909
0.065004
-0.136843
-0.247665
-0.255926
-0.203134
-0.243128
-0.520753
-0.504283
-0.444946
-0.370992
-0.282342
-0.187229
-0.0879981
0.013849
0.11719
0.217182
0.298979
0.339521
0.304847
0.237283
0.0324884
-0.12737
-0.20984
-0.218075
-0.265836
-0.269872
-0.543857
-0.527551
-0.467628
-0.394005
-0.305648
-0.211377
-0.113567
-0.0137628
0.086496
0.181681
0.258417
0.289191
0.257102
0.175729
0.00422112
-0.118227
-0.18858
-0.165684
-0.186117
-0.187775
-0.567838
-0.551277
-0.491369
-0.418497
-0.330458
-0.237242
-0.141091
-0.0435656
0.053304
0.143773
0.215572
0.235511
0.215786
0.107699
-0.0313401
-0.113561
-0.152552
-0.200878
-0.174989
-0.183662
-0.592654
-0.575694
-0.516251
-0.44418
-0.356436
-0.264656
-0.170381
-0.0753441
0.0177874
0.103842
0.171303
0.180685
0.172568
0.0467383
-0.0682897
-0.132001
-0.109488
-0.169183
-0.149821
-0.154833
-0.617102
-0.599925
-0.541941
-0.470817
-0.383392
-0.293428
-0.201186
-0.108776
-0.0198517
0.0622287
0.12682
0.128598
0.120635
-0.00434256
-0.0952047
-0.146428
-0.134142
-0.149567
-0.154826
-0.153076
-0.640997
-0.62394
-0.567939
-0.497584
-0.410816
-0.32315
-0.23306
-0.143453
-0.0590664
0.0193237
0.0824432
0.0805393
0.0632578
-0.0468356
-0.10876
-0.140322
-0.178768
-0.150143
-0.155843
-0.150217
-0.663107
-0.646787
-0.592827
-0.523715
-0.43861
-0.353386
-0.265574
-0.178873
-0.0990738
-0.0246692
0.0380526
0.0370407
0.00762883
-0.0815555
-0.121429
-0.114844
-0.187564
-0.130235
-0.145319
-0.137473
-0.682988
-0.667792
-0.615924
-0.548085
-0.466065
-0.383223
-0.297943
-0.214404
-0.138859
-0.0691022
-0.00688709
-0.00329265
-0.0372074
-0.10037
-0.129397
-0.08849
-0.134309
-0.116469
-0.122557
-0.119319
-0.698853
-0.685272
-0.63607
-0.570424
-0.492378
-0.411892
-0.329574
-0.24939
-0.17752
-0.113335
-0.0521174
-0.0410636
-0.0685314
-0.101043
-0.117249
-0.0947909
-0.108546
-0.112622
-0.113805
-0.114006
-0.710035
-0.698603
-0.652771
-0.589703
-0.51559
-0.43822
-0.35928
-0.282776
-0.214223
-0.15603
-0.0964149
-0.0762274
-0.0906525
-0.0970879
-0.108835
-0.119676
-0.112061
-0.115593
-0.113837
-0.114972
-0.715
-0.705969
-0.664316
-0.604857
-0.534922
-0.461355
-0.386353
-0.313742
-0.248259
-0.195681
-0.137165
-0.110266
-0.119039
-0.0963438
-0.106778
-0.141588
-0.11865
-0.125055
-0.118135
-0.119191
-0.713927
-0.707017
-0.66976
-0.614255
-0.548679
-0.479642
-0.409119
-0.340771
-0.278824
-0.230264
-0.173535
-0.14242
-0.140678
-0.102253
-0.0981245
-0.126357
-0.106973
-0.127003
-0.124767
-0.126814
-0.705814
-0.69853
-0.666335
-0.616608
-0.556513
-0.492521
-0.426889
-0.362764
-0.304209
-0.258268
-0.204
-0.171457
-0.157467
-0.116094
-0.0568426
-0.047363
-0.0617288
-0.071318
-0.0750005
-0.0786496
-0.685005
-0.676658
-0.652711
-0.610508
-0.556768
-0.498442
-0.438233
-0.378118
-0.322317
-0.277729
-0.226741
-0.191598
-0.176769
-0.184938
-0.208365
-0.258186
-0.269019
-0.258398
-0.244863
-0.233995
-0.642201
-0.634349
-0.625942
-0.595994
-0.550531
-0.498461
-0.443208
-0.386106
-0.331256
-0.285987
-0.236823
-0.196113
-0.248727
-0.355791
-0.565794
-0.737501
-0.749858
-0.730847
-0.665469
-0.605333
-0.601568
-0.598803
-0.597515
-0.574475
-0.538092
-0.492902
-0.442161
-0.386867
-0.330047
-0.280678
-0.231695
-0.165323
-0.187339
-0.274204
-0.386544
-0.416155
-0.356765
-0.287132
-0.246749
-0.224012
-0.578624
-0.580403
-0.570157
-0.556498
-0.527767
-0.486579
-0.436878
-0.38138
-0.319333
-0.258093
-0.200354
-0.0877189
0.0488302
0.251874
0.448003
0.637884
0.778046
0.860837
0.904687
0.942939
-0.547375
-0.547037
-0.543953
-0.542727
-0.518532
-0.48062
-0.431463
-0.373872
-0.305797
-0.227907
-0.147567
-0.0135481
0.197611
0.514421
0.819701
1.07402
1.25162
1.35612
1.40658
1.42271
-0.535446
-0.533557
-0.536423
-0.529082
-0.512232
-0.47715
-0.426436
-0.365222
-0.292876
-0.20304
-0.10421
0.0223201
0.255909
0.574845
0.885045
1.14482
1.33628
1.44872
1.4989
1.51492
-0.523116
-0.521441
-0.524673
-0.516448
-0.51145
-0.476895
-0.424887
-0.360366
-0.283753
-0.187538
-0.0809425
0.0240318
0.242842
0.520856
0.793729
1.02943
1.21352
1.32474
1.37407
1.38767
-0.51322
-0.513302
-0.513197
-0.512762
-0.510335
-0.475577
-0.424529
-0.359712
-0.281485
-0.184852
-0.0802344
0.00193779
0.186551
0.422274
0.647053
0.840882
0.996958
1.09195
1.13307
1.14319
-0.505864
-0.507334
-0.505524
-0.51088
-0.506086
-0.476928
-0.427563
-0.36261
-0.285361
-0.193306
-0.0939126
-0.0290413
0.117116
0.314887
0.494759
0.644287
0.764138
0.838153
0.869541
0.877284
-0.494109
-0.494491
-0.491174
-0.493334
-0.486236
-0.472705
-0.43181
-0.367977
-0.293016
-0.207584
-0.113734
-0.0593436
0.0495064
0.211581
0.352954
0.465494
0.554471
0.610426
0.633911
0.638948
-0.493293
-0.490332
-0.484999
-0.480582
-0.475596
-0.473738
-0.434982
-0.372179
-0.299728
-0.222412
-0.134423
-0.0858963
-0.00962619
0.120577
0.231025
0.315536
0.38076
0.422488
0.438333
0.442649
-0.51799
-0.514695
-0.511784
-0.510236
-0.511537
-0.503258
-0.444181
-0.375815
-0.302946
-0.23326
-0.152223
-0.107222
-0.0567265
0.0464676
0.131676
0.194733
0.243056
0.273876
0.285692
0.28979
-0.56987
-0.571759
-0.577462
-0.585996
-0.580946
-0.544966
-0.459872
-0.379529
-0.301407
-0.237716
-0.165034
-0.122647
-0.0895168
-0.00855684
0.0556436
0.102184
0.139376
0.163051
0.172372
0.174794
-0.582401
-0.587511
-0.600835
-0.614205
-0.607268
-0.552943
-0.460012
-0.373518
-0.292493
-0.233799
-0.170946
-0.132014
-0.108173
-0.0450729
0.00212631
0.03587
0.063169
0.0795773
0.0866153
0.088429
-0.494615
-0.500581
-0.518986
-0.529811
-0.527412
-0.484601
-0.414376
-0.342547
-0.27224
-0.218712
-0.168465
-0.134975
-0.114603
-0.066737
-0.033022
-0.00904018
0.0086794
0.0187277
0.0224928
0.0228583
-0.332804
-0.339247
-0.347922
-0.356094
-0.357257
-0.340731
-0.310652
-0.274149
-0.230242
-0.191124
-0.156365
-0.130804
-0.112087
-0.0780527
-0.0549924
-0.0396833
-0.0296489
-0.0247802
-0.0237356
-0.0244757
-0.169545
-0.172431
-0.177673
-0.186045
-0.193617
-0.196576
-0.195152
-0.188561
-0.172413
-0.154335
-0.135345
-0.11926
-0.104268
-0.0824122
-0.0681115
-0.0593924
-0.0547842
-0.0536103
-0.0545474
-0.0558154
-0.0455128
-0.0470347
-0.0506724
-0.0587185
-0.0713339
-0.0859875
-0.10035
-0.111767
-0.115105
-0.114985
-0.108464
-0.101219
-0.0930602
-0.0809195
-0.073502
-0.0701401
-0.0694184
-0.0705408
-0.0723413
-0.0737529
0.0289591
0.0278852
0.0252739
0.0173478
0.0021089
-0.0177973
-0.0379545
-0.0561536
-0.0685596
-0.0789947
-0.0803984
-0.079763
-0.0791059
-0.0734263
-0.0720341
-0.0729321
-0.0748761
-0.077418
-0.0794779
-0.0808482
0.0632342
0.0625646
0.0605746
0.0535004
0.0387427
0.0184015
-0.0028557
-0.0226645
-0.0376591
-0.0512351
-0.0561838
-0.0596269
-0.0636045
-0.062854
-0.0661416
-0.0699493
-0.0735512
-0.0766963
-0.0787154
-0.0799572
0.073288
0.0727724
0.0711876
0.0654505
0.0531345
0.0353541
0.0155921
-0.00385955
-0.0192742
-0.0329979
-0.0386255
-0.0437588
-0.0493962
-0.0528621
-0.058339
-0.0633455
-0.0675741
-0.0708007
-0.0726282
-0.0736954
0.0705618
0.0701903
0.0689591
0.0645914
0.0551664
0.0411472
0.0245764
0.00692788
-0.00786188
-0.0213803
-0.0270074
-0.0322772
-0.038291
-0.0436547
-0.0498285
-0.0549776
-0.0590652
-0.0620011
-0.063491
-0.0643819
0.0621939
0.0619523
0.061047
0.0578614
0.0509674
0.0405254
0.0277033
0.0130707
0.000143615
-0.0129501
-0.0189881
-0.0238739
-0.0293872
-0.0349052
-0.0409158
-0.0457383
-0.0494087
-0.0519169
-0.0530168
-0.0537431
0.0519621
0.0518273
0.0511874
0.04896
0.044071
0.0364974
0.0269949
0.0156662
0.00555789
-0.00624771
-0.0124743
-0.01706
-0.0219841
-0.026823
-0.0321413
-0.036373
-0.0395572
-0.0416996
-0.042535
-0.0431253
0.0416316
0.041567
0.0411198
0.0396315
0.0362577
0.0309055
0.0240109
0.0154487
0.00811754
-0.00156888
-0.00698476
-0.0109348
-0.0153584
-0.0195985
-0.0241923
-0.0277936
-0.0304667
-0.0322341
-0.0328294
-0.0332981
0.0321046
0.0320765
0.0317776
0.0308152
0.0285374
0.0248533
0.0199582
0.0135883
0.00848803
0.00105965
-0.00295114
-0.00611738
-0.0097681
-0.0133624
-0.0173097
-0.0202774
-0.0224333
-0.023844
-0.0243112
-0.0247026
0.0235458
0.0235503
0.023342
0.0227564
0.0212642
0.018802
0.0154693
0.0108196
0.00748087
0.00199763
-0.00056649
-0.00282425
-0.00564968
-0.00851395
-0.0116775
-0.0139218
-0.015543
-0.0166056
-0.0169145
-0.017234
0.0158652
0.0158687
0.0157347
0.0154146
0.0144898
0.0129325
0.0108469
0.00758708
0.00562232
0.00175274
0.000340216
-0.00101298
-0.0029441
-0.00493289
-0.00729422
-0.00884685
-0.0098875
-0.0105053
-0.0106962
-0.0110075
0.00894416
0.00893512
0.00888907
0.00879276
0.00834625
0.00752654
0.00652378
0.00447421
0.00360959
0.00102252
0.00033198
-0.00038309
-0.00147955
-0.00252556
-0.00411203
-0.00499339
-0.00550406
-0.00579703
-0.00577255
-0.00599582
0.00286238
0.00288115
0.00292531
0.00297267
0.00291111
0.00266706
0.00247921
0.00152094
0.00144099
0.000254788
0.000181642
0.000115457
-0.000544958
-0.000742451
-0.00173302
-0.00229168
-0.00280992
-0.00321925
-0.00296776
-0.00295314
-1.07671
-0.24132
0.0285555
0.303038
0.482115
0.63507
0.756811
0.881215
1.01979
1.10485
-0.101122
0.303323
0.317658
0.504507
0.625575
0.734175
0.827218
0.910447
0.937184
0.895936
0.271464
0.483571
0.516548
0.651993
0.735773
0.813816
0.878246
0.9267
0.928421
0.942961
0.497978
0.639027
0.673349
0.773309
0.829633
0.885861
0.930008
0.961994
0.970882
0.994725
0.673564
0.773435
0.80308
0.86918
0.913465
0.953551
0.985275
1.00939
1.01904
1.05075
0.815215
0.883127
0.913247
0.955376
0.9911
1.02082
1.04485
1.06557
1.07957
1.10796
0.933321
0.983386
1.00876
1.03638
1.06372
1.0873
1.10713
1.12636
1.14116
1.16775
1.03644
1.07319
1.09411
1.11458
1.1352
1.15447
1.17183
1.18993
1.20479
1.22847
1.13004
1.15902
1.17526
1.19045
1.20647
1.22248
1.23801
1.2549
1.26853
1.29085
1.21809
1.23849
1.25329
1.26642
1.27996
1.29371
1.3072
1.32179
1.33333
1.35297
1.30343
1.31919
1.333
1.3448
1.3567
1.36833
1.37947
1.39114
1.39882
1.41561
1.38862
1.40116
1.41487
1.42661
1.43725
1.44704
1.45586
1.46412
1.46768
1.47891
1.47736
1.48819
1.50166
1.51118
1.51874
1.52604
1.53322
1.53968
1.54079
1.54814
1.57576
1.58037
1.58856
1.59329
1.59669
1.60116
1.60716
1.61481
1.61872
1.62859
1.68904
1.67593
1.66864
1.66293
1.66021
1.66155
1.66786
1.68023
1.69506
1.72473
1.81101
1.75497
1.72395
1.70675
1.69853
1.69846
1.70733
1.72695
1.75873
1.828
)
;

boundaryField
{
    wall-4
    {
        type            zeroGradient;
    }
    pressure-outlet-7
    {
        type            fixedValue;
        value           uniform 0;
    }
    velocity-inlet-6
    {
        type            zeroGradient;
    }
    velocity-inlet-5
    {
        type            zeroGradient;
    }
    frontAndBackPlanes
    {
        type            empty;
    }
}


// ************************************************************************* //
