/*--------------------------------*- C++ -*----------------------------------*\
| =========                 |                                                 |
| \\      /  F ield         | OpenFOAM: The Open Source CFD Toolbox           |
|  \\    /   O peration     | Version:  v2012                                 |
|   \\  /    A nd           | Website:  www.openfoam.com                      |
|    \\/     M anipulation  |                                                 |
\*---------------------------------------------------------------------------*/
FoamFile
{
    version     2.0;
    format      ascii;
    class       surfaceScalarField;
    location    "67";
    object      phi;
}
// * * * * * * * * * * * * * * * * * * * * * * * * * * * * * * * * * * * * * //

dimensions      [0 3 -1 0 0 0 0];
oriented        oriented;


internalField   nonuniform List<scalar> 
4262
(
0.107134
0.470854
0.0955704
0.70515
0.0693869
0.858486
0.0473763
1.02077
0.030998
1.21489
0.0197832
1.44943
0.0123673
1.73328
0.00716337
2.07624
0.00322034
2.48919
-0.000568452
2.98608
-0.00426875
2.98599
-0.00805762
2.48903
-0.01306
2.07604
-0.0201902
1.73299
-0.0311119
1.44914
-0.0471589
1.21456
-0.0689023
1.02051
-0.0951779
0.858579
-0.10706
0.705468
0.470929
0.112858
0.357997
0.13525
0.682757
0.120341
0.873396
0.0977811
1.04333
0.0745234
1.23815
0.0527936
1.47116
0.0343983
1.75167
0.0201705
2.09047
0.00886858
2.50049
-0.00103591
2.99599
-0.0111264
2.99608
-0.0223711
2.50028
-0.0364819
2.09015
-0.0548065
1.75132
-0.0766556
1.47099
-0.100403
1.23831
-0.123573
1.04368
-0.137055
0.87206
-0.113579
0.681992
0.35735
0.0920409
0.265956
0.12496
0.649838
0.121078
0.877278
0.104783
1.05963
0.0861155
1.25682
0.0669674
1.49031
0.0479746
1.77067
0.0298834
2.10856
0.0132582
2.51711
-0.00282022
3.01206
-0.0185066
3.01177
-0.0343532
2.51612
-0.0518132
2.10761
-0.0702159
1.76972
-0.0885097
1.48928
-0.105685
1.25549
-0.119787
1.05778
-0.125223
0.877497
-0.0923557
0.649124
0.264994
0.0639745
0.201981
0.104782
0.60903
0.106547
0.875513
0.0951547
1.07102
0.0812061
1.27077
0.066441
1.50508
0.0503133
1.7868
0.0331491
2.12572
0.0155026
2.53476
-0.00310809
3.03067
-0.0215802
3.03024
-0.0390313
2.53357
-0.0555287
2.12411
-0.0707637
1.78496
-0.0845962
1.50312
-0.0983114
1.2692
-0.110059
1.06953
-0.107048
0.874485
-0.0649056
0.606982
0.200089
0.0374616
0.16452
0.080667
0.565825
0.0909098
0.86527
0.0836776
1.07825
0.0710475
1.2834
0.0591799
1.51695
0.0461144
1.79986
0.0310828
2.14076
0.0140144
2.55183
-0.00523426
3.04992
-0.0239821
3.04899
-0.039825
2.54942
-0.0536472
2.13793
-0.0657177
1.79703
-0.0769403
1.51434
-0.0888675
1.28113
-0.0952052
1.07586
-0.0833429
0.862623
-0.0384512
0.562091
0.161637
0.019444
0.145076
0.0571452
0.528123
0.0725162
0.849899
0.0704069
1.08036
0.0616001
1.2922
0.0507185
1.52783
0.0395687
1.81101
0.0269737
2.15335
0.0119848
2.56682
-0.00568842
3.0676
-0.0230651
3.06637
-0.0374916
2.56384
-0.0490794
2.14952
-0.0590022
1.80695
-0.068819
1.52416
-0.0764344
1.28874
-0.0772395
1.07667
-0.0600818
0.845465
-0.0204059
0.522415
0.141232
0.0106033
0.134472
0.042282
0.496445
0.0583422
0.833839
0.0585679
1.08014
0.0523665
1.29841
0.0429372
1.53726
0.032471
1.82148
0.0209652
2.16486
0.00748416
2.5803
-0.00849897
3.08358
-0.0238335
3.0817
-0.0355471
2.57556
-0.0452036
2.15917
-0.0540917
1.81584
-0.0620166
1.53208
-0.0665485
1.29328
-0.0645286
1.07465
-0.0460384
0.826975
-0.011741
0.488118
0.129491
0.00654156
0.127931
0.0328523
0.470134
0.0490595
0.817632
0.0505218
1.07868
0.045389
1.30354
0.0369624
1.54568
0.0272913
1.83115
0.0165038
2.17564
0.00458851
2.59221
-0.00934559
3.09751
-0.0229419
3.0953
-0.0339075
2.58652
-0.0431491
2.16841
-0.0507471
1.82344
-0.0572167
1.53855
-0.0603602
1.29642
-0.0566663
1.07096
-0.0374244
0.807733
-0.00793317
0.458626
0.121557
0.00468129
0.123249
0.0264469
0.448368
0.0421794
0.801899
0.0442339
1.07662
0.0395279
1.30825
0.0318007
1.55341
0.022561
1.84039
0.0118008
2.1864
-0.000107272
2.60412
-0.0132402
3.11065
-0.0249915
3.10705
-0.0344554
2.59599
-0.0425868
2.17655
-0.0495041
1.83035
-0.0548918
1.54394
-0.0570667
1.29859
-0.051934
1.06582
-0.0321451
0.787944
-0.00640439
0.432886
0.115153
0.00370685
0.119543
0.0215534
0.430522
0.0365858
0.786867
0.0392597
1.07395
0.0348639
1.31264
0.0274751
1.5608
0.0186442
1.84922
0.00859591
2.19645
-0.00262041
2.61534
-0.0148663
3.12289
-0.0265666
3.11875
-0.0362052
2.60563
-0.0436566
2.184
-0.049455
1.83615
-0.0539998
1.54848
-0.0551278
1.29972
-0.0486426
1.05934
-0.028517
0.767818
-0.00583264
0.410201
0.10932
0.00300973
0.116533
0.0174095
0.416122
0.0312411
0.773035
0.0340923
1.0711
0.0298166
1.31692
0.0225412
1.56807
0.0138328
1.85793
0.00366173
2.20662
-0.00789668
2.6269
-0.0201996
3.1352
-0.0308366
3.12939
-0.0386887
2.61348
-0.0451301
2.19044
-0.050382
1.8414
-0.0541013
1.5522
-0.0541105
1.29973
-0.0461587
1.05139
-0.0258547
0.747514
-0.00558932
0.389936
0.103731
0.00232573
0.114207
0.0136647
0.404783
0.0261165
0.760583
0.0291409
1.06807
0.0251102
1.32095
0.0180254
1.57516
0.0095275
1.86642
-0.000142675
2.21629
-0.0109802
2.63773
-0.0229255
3.14714
-0.0337464
3.14021
-0.0420506
2.62178
-0.0478211
2.19621
-0.0519717
1.84555
-0.054572
1.5548
-0.0538577
1.29902
-0.044471
1.042
-0.0239943
0.727038
-0.00546676
0.371408
0.0982643
0.00164015
0.112567
0.0103502
0.396073
0.0209977
0.749936
0.0234447
1.06562
0.0191382
1.32525
0.0118406
1.58246
0.00302329
1.87524
-0.00710042
2.22642
-0.0183169
2.64895
-0.0300782
3.1589
-0.0396857
3.14981
-0.0460365
2.62813
-0.0507436
2.20092
-0.0544196
1.84923
-0.0561602
1.55654
-0.0544467
1.2973
-0.0436949
1.03125
-0.0228586
0.706201
-0.00542757
0.353977
0.0928367
0.000777129
0.11179
0.00691092
0.389939
0.015892
0.740955
0.0179772
1.06354
0.0135148
1.32972
0.00611027
1.58986
-0.00266775
1.88402
-0.0123993
2.23615
-0.023155
2.65971
-0.0350213
3.17077
-0.04498
3.15977
-0.0514712
2.63462
-0.0552748
2.20472
-0.0578307
1.85179
-0.0584778
1.55719
-0.0557069
1.29453
-0.0435092
1.01905
-0.0222059
0.684898
-0.00541283
0.337184
0.0874239
0.000120191
0.11167
0.00406626
0.385993
0.0107309
0.73429
0.0116841
1.06259
0.00665962
1.33474
-0.00129155
1.59781
-0.0109602
1.89369
-0.0219385
2.24713
-0.0337509
2.67152
-0.0448939
3.18191
-0.0530407
3.16792
-0.0578482
2.63943
-0.0608921
2.20776
-0.0628194
1.85371
-0.0625104
1.55688
-0.058122
1.29014
-0.0441929
1.00512
-0.0221048
0.66281
-0.00549369
0.320573
0.0819302
-0.00088869
0.112558
0.000322987
0.384782
0.00480091
0.729812
0.0047102
1.06268
-0.0010088
1.34046
-0.00971082
1.60651
-0.0197334
1.90371
-0.0303363
2.25773
-0.0412056
2.68239
-0.0524051
3.19311
-0.0612833
3.1768
-0.0659141
2.64406
-0.0677739
2.20962
-0.0686127
1.85455
-0.0674134
1.55568
-0.0613681
1.2841
-0.0455775
0.989329
-0.0224555
0.639688
-0.00564568
0.303763
0.0762845
-0.00179871
0.114357
-0.00286541
0.385848
-0.00123272
0.72818
-0.00296023
1.0644
-0.00961307
1.34711
-0.0190258
1.61593
-0.0300192
1.9147
-0.0423585
2.27007
-0.0554328
2.69546
-0.0669124
3.20459
-0.0733118
3.1832
-0.0763126
2.64706
-0.0777755
2.21109
-0.077396
1.85417
-0.0744136
1.5527
-0.0663639
1.27605
-0.0481496
0.971115
-0.0234628
0.615001
-0.00596228
0.286263
0.0703223
-0.00312163
0.117479
-0.00656028
0.389287
-0.00846975
0.730089
-0.0121174
1.06805
-0.0200053
1.355
-0.0308347
1.62676
-0.0430449
1.92691
-0.0556415
2.28267
-0.0675336
2.70735
-0.0778239
3.21488
-0.0851213
3.19049
-0.0881328
2.65007
-0.0875776
2.21053
-0.0862779
1.85287
-0.0825557
1.54898
-0.0722849
1.26578
-0.0514099
0.95024
-0.024843
0.588434
-0.00632523
0.267745
0.063997
-0.00445406
0.121933
-0.0108239
0.395657
-0.0160435
0.735309
-0.0224925
1.0745
-0.0317225
1.36423
-0.043716
1.63875
-0.0570306
1.94023
-0.0713912
2.29703
-0.0860343
2.722
-0.0987356
3.22758
-0.104047
3.19581
-0.104482
2.65051
-0.103387
2.20944
-0.0998949
1.84938
-0.0935796
1.54266
-0.08058
1.25278
-0.0562409
0.925901
-0.0269233
0.559117
-0.00684752
0.247669
0.0571495
-0.00585892
0.127792
-0.0157955
0.405593
-0.0251366
0.74465
-0.0344796
1.08384
-0.0458777
1.37563
-0.060064
1.65294
-0.0755766
1.95574
-0.091431
2.31288
-0.105798
2.73636
-0.115784
3.23757
-0.120281
3.2003
-0.12072
2.65095
-0.117793
2.20651
-0.113646
1.84523
-0.106192
1.53521
-0.0897522
1.23634
-0.0614831
0.897632
-0.0291537
0.526787
-0.00733508
0.225851
0.0498144
-0.00824185
0.136034
-0.0228445
0.420196
-0.0377311
0.759537
-0.0505119
1.09662
-0.0636693
1.38879
-0.079581
1.66885
-0.0967759
1.97294
-0.114306
2.33041
-0.130408
2.75247
-0.143126
3.25029
-0.147594
3.20477
-0.145079
2.64843
-0.140407
2.20184
-0.133185
1.83801
-0.122019
1.52404
-0.10167
1.21599
-0.0684396
0.864402
-0.0318926
0.49024
-0.00787801
0.201836
0.0419364
-0.0106234
0.146657
-0.0297513
0.439324
-0.0502965
0.780082
-0.0682019
1.11453
-0.0852745
1.40586
-0.10445
1.68802
-0.12469
1.99318
-0.144523
2.35024
-0.161295
2.76924
-0.171019
3.26001
-0.171367
3.20512
-0.16775
2.64482
-0.161513
2.1956
-0.153231
1.82973
-0.140049
1.51086
-0.114602
1.19054
-0.0753545
0.825154
-0.0344035
0.449289
-0.00828039
0.175713
0.033656
-0.0153838
0.162041
-0.0423157
0.466256
-0.0699986
0.807765
-0.0926781
1.13721
-0.113189
1.42637
-0.13609
1.71092
-0.158934
2.01602
-0.179852
2.37116
-0.19594
2.78533
-0.204947
3.26902
-0.205584
3.20576
-0.199581
2.63882
-0.190583
2.1866
-0.179141
1.81829
-0.160902
1.49262
-0.129656
1.1593
-0.0835118
0.779009
-0.0369208
0.402698
-0.00857074
0.147363
0.0250853
-0.0195945
0.181635
-0.055391
0.502052
-0.0929585
0.845332
-0.123725
1.16798
-0.150437
1.45308
-0.177616
1.7381
-0.203013
2.04142
-0.22481
2.39296
-0.240668
2.80118
-0.247291
3.27564
-0.242191
3.20065
-0.231562
2.62819
-0.21963
2.17467
-0.205547
1.80421
-0.184022
1.4711
-0.145147
1.12042
-0.0901873
0.724049
-0.0382762
0.350787
-0.00838638
0.117473
0.0166989
-0.032793
0.214428
-0.0820425
0.551302
-0.129982
0.893271
-0.167183
1.20518
-0.199237
1.48514
-0.230797
1.76966
-0.257346
2.06797
-0.278135
2.41375
-0.290373
2.81342
-0.290944
3.27621
-0.281794
3.1915
-0.269569
2.61596
-0.256121
2.16122
-0.238669
1.78675
-0.209396
1.44182
-0.161469
1.07249
-0.0974616
0.660042
-0.0394718
0.292797
-0.00811639
0.0861176
0.00858251
-0.0471966
0.261625
-0.121209
0.625314
-0.185212
0.957274
-0.231009
1.25097
-0.269183
1.52331
-0.301418
1.8019
-0.325677
2.09222
-0.342553
2.43062
-0.350061
2.82093
-0.346131
3.27228
-0.332209
3.17758
-0.313791
2.59754
-0.293749
2.14118
-0.270411
1.76342
-0.234817
1.40623
-0.175474
1.01315
-0.0994836
0.584052
-0.037874
0.231188
-0.00780883
0.0560524
0.000773682
-0.0342845
0.295909
-0.0983284
0.689358
-0.157173
1.01612
-0.20546
1.29926
-0.249537
1.56739
-0.289138
1.8415
-0.326429
2.12952
-0.360541
2.46474
-0.387642
2.84803
-0.403754
3.28839
-0.403879
3.17771
-0.395892
2.58956
-0.383194
2.12848
-0.357582
1.7378
-0.303237
1.35188
-0.214893
0.924807
-0.112898
0.482057
-0.0416806
0.15997
-0.00913447
0.0235062
-0.00836078
-0.0124738
0.308383
-0.0475938
0.724478
-0.09005
1.05857
-0.130137
1.33935
-0.169962
1.60721
-0.205859
1.8774
-0.239635
2.16329
-0.269386
2.49449
-0.29144
2.87009
-0.300314
3.29727
-0.295682
3.17308
-0.282994
2.57687
-0.261285
2.10677
-0.229008
1.70553
-0.182188
1.30506
-0.117355
0.859974
-0.0538307
0.418533
-0.0202433
0.126383
-0.0047911
0.008054
-0.0131519
-0.000142562
0.308526
-0.0245172
0.748852
-0.0542528
1.08831
-0.0851571
1.37025
-0.11764
1.6397
-0.149049
1.90881
-0.1784
2.19264
-0.203179
2.51927
-0.219779
2.88668
-0.224768
3.30225
-0.217105
3.16541
-0.19786
2.55762
-0.173891
2.0828
-0.144915
1.67655
-0.103454
1.2636
-0.0548593
0.81138
-0.0207306
0.384404
-0.00862376
0.114276
-0.00265155
0.00208179
-0.0158034
0.000914837
0.307611
-0.0132677
0.763035
-0.0344702
1.10951
-0.0588179
1.3946
-0.0849579
1.66584
-0.111664
1.93551
-0.136694
2.21767
-0.157527
2.5401
-0.170906
2.90006
-0.171828
3.30318
-0.156927
3.15051
-0.135632
2.53633
-0.110218
2.05739
-0.0769943
1.64333
-0.0431823
1.22979
-0.0151007
0.783298
-0.00155528
0.370859
-0.000630984
0.113352
-0.000878609
0.00232942
-0.016682
0.00482463
0.302786
-0.00354769
0.771407
-0.0220043
1.12797
-0.0435798
1.41617
-0.0659778
1.68823
-0.0880182
1.95755
-0.108914
2.23857
-0.126284
2.55747
-0.136294
2.91007
-0.134378
3.30126
-0.119141
3.13527
-0.0950026
2.51219
-0.0667664
2.02915
-0.0406529
1.61721
-0.0114406
1.20058
0.0106631
0.761195
0.0129083
0.368614
0.0063724
0.119888
0.00137637
0.00732545
-0.0153057
0.00520625
0.29758
-0.0007234
0.777337
-0.016185
1.14343
-0.0340088
1.434
-0.0530708
1.7073
-0.0726397
1.97712
-0.0912693
2.2572
-0.106389
2.57259
-0.114522
2.91821
-0.110985
3.29772
-0.0930917
3.11738
-0.0689664
2.48807
-0.0441471
2.00433
-0.0148592
1.58793
0.00811703
1.1776
0.0195097
0.749802
0.0183529
0.369771
0.00953897
0.128702
0.00238054
0.0144839
-0.0129251
0.00492512
0.292655
0.00132644
0.780936
-0.0118481
1.15661
-0.0288409
1.45099
-0.0465572
1.72501
-0.0638673
1.99443
-0.0799905
2.27332
-0.0930254
2.58563
-0.0998253
2.92501
-0.0957368
3.29363
-0.0786051
3.10025
-0.0549567
2.46442
-0.0278098
1.97719
-0.0058039
1.56592
0.0138119
1.15799
0.0248988
0.738715
0.0205228
0.374147
0.0108205
0.138404
0.00291602
0.0223884
-0.0100091
0.00273365
0.289921
-0.00055631
0.784225
-0.011773
1.16782
-0.0260509
1.46527
-0.041767
1.74073
-0.05787
2.01053
-0.0732483
2.2887
-0.0859689
2.59835
-0.0929107
2.93195
-0.0889989
3.28972
-0.0717626
3.08301
-0.0504852
2.44314
-0.0280874
1.95479
-0.00189429
1.53973
0.016542
1.13955
0.0231574
0.7321
0.0197946
0.37751
0.0106603
0.147538
0.00301055
0.0300382
-0.00699857
0.00163142
0.28829
-0.000779784
0.786637
-0.0114402
1.17848
-0.0251315
1.47896
-0.040358
1.75595
-0.0554498
2.02563
-0.0698394
2.30309
-0.0820504
2.61056
-0.0889587
2.93886
-0.0855825
3.28635
-0.0703125
3.06774
-0.049161
2.42199
-0.0251989
1.93083
-0.00632451
1.52085
0.0107556
1.12247
0.020342
0.722513
0.0168962
0.380955
0.00936824
0.155066
0.00272887
0.0366776
-0.00426969
-0.000488224
0.288778
-0.00456144
0.79071
-0.0135677
1.18749
-0.0253672
1.49076
-0.0391818
1.76977
-0.0537201
2.04016
-0.068158
2.31753
-0.0807231
2.62312
-0.0882396
2.94637
-0.0860049
3.28411
-0.0723353
3.05407
-0.053406
2.40306
-0.0337981
1.91122
-0.0105091
1.49756
0.00643387
1.10553
0.0130845
0.715862
0.0126384
0.381401
0.00716817
0.160536
0.00222469
0.041621
-0.002045
-0.00103037
0.289808
-0.00527995
0.794959
-0.0143177
1.19653
-0.0260712
1.50251
-0.0397208
1.78342
-0.0537885
2.05423
-0.0677408
2.33148
-0.0802938
2.63567
-0.0888755
2.95496
-0.0889156
3.28415
-0.0771295
3.04229
-0.0575651
2.38349
-0.0354201
1.88907
-0.0186679
1.48081
-0.0029931
1.08985
0.00750594
0.705363
0.00785331
0.381054
0.00498172
0.163408
0.00168145
0.0449213
-0.00036355
-0.00265663
0.292465
-0.00806899
0.800372
-0.0165609
1.20502
-0.0272383
1.51319
-0.0398292
1.79601
-0.0534293
2.06783
-0.0676007
2.34565
-0.081032
2.64911
-0.0909567
2.96488
-0.0925102
3.28571
-0.0820411
3.03182
-0.0654878
2.36694
-0.0474414
1.87103
-0.0252432
1.45861
-0.00886157
1.07347
-0.000585554
0.697087
0.00342659
0.377042
0.00270458
0.16413
0.00110965
0.0465162
0.000746104
-0.00359658
0.296062
-0.0085723
0.805348
-0.0171376
1.21358
-0.0279664
1.52402
-0.0405325
1.80858
-0.0539054
2.0812
-0.0679641
2.35971
-0.0816914
2.66283
-0.0928422
2.97603
-0.0973188
3.29018
-0.0899671
3.02447
-0.0732085
2.35018
-0.0505825
1.8484
-0.0334482
1.44148
-0.0171724
1.0572
-0.00455592
0.684471
-0.000546243
0.373032
0.000910351
0.162673
0.000594074
0.0468325
0.00134018
-0.00415737
0.300219
-0.0104009
0.811591
-0.0187953
1.22198
-0.0288638
1.53409
-0.0406801
1.82039
-0.0537166
2.09424
-0.0680075
2.374
-0.0826058
2.67743
-0.095355
2.98878
-0.102056
3.29688
-0.0967339
3.01915
-0.0817935
2.33524
-0.0633244
1.82993
-0.0390367
1.41719
-0.0204694
1.03863
-0.00946743
0.673469
-0.0028861
0.366451
-0.000392106
0.160179
0.000235743
0.0462047
0.00157592
-0.00412053
0.30434
-0.0102976
0.817768
-0.0188037
1.23048
-0.0290174
1.5443
-0.0408904
1.83227
-0.0538463
2.1072
-0.0681474
2.3883
-0.0830581
2.69234
-0.0969865
3.00271
-0.106556
3.30645
-0.104958
3.01755
-0.090685
2.32097
-0.0667523
1.806
-0.0452976
1.39574
-0.0247321
1.01806
-0.00906061
0.657798
-0.00297724
0.360368
-0.000610837
0.157813
-0.000407795
0.0460016
0.00116812
-0.00430245
0.308642
-0.0113276
0.824793
-0.0196955
1.23885
-0.0293388
1.55395
-0.0406505
1.84358
-0.0533237
2.11987
-0.0677288
2.40271
-0.0833201
2.70793
-0.0987603
3.01815
-0.110729
3.31842
-0.111185
3.018
-0.0990422
2.30883
-0.0795366
1.78649
-0.0494742
1.36567
-0.0237737
0.992363
-0.00758309
0.641607
0.0020563
0.350728
0.00389642
0.155973
0.00214678
0.0477513
0.0033149
-0.00422523
0.312867
-0.0108991
0.831467
-0.0191789
1.24713
-0.0288978
1.56366
-0.0402115
1.85489
-0.0527955
2.13245
-0.067194
2.4171
-0.0830524
2.72379
-0.0994894
3.03459
-0.113813
3.33274
-0.118617
3.02281
-0.108438
2.29865
-0.0834671
1.76152
-0.0549943
1.3372
-0.0232641
0.960632
0.000762976
0.61758
0.0111383
0.340353
0.00726869
0.159842
-0.00129628
0.0563162
0.00201863
-0.00436658
0.317234
-0.011465
0.838566
-0.0195095
1.25518
-0.0286939
1.57285
-0.0394747
1.86567
-0.0517495
2.14473
-0.0661195
2.43147
-0.0824521
2.74012
-0.100063
3.0522
-0.11645
3.34913
-0.123748
3.03011
-0.116245
2.29114
-0.0971598
1.74244
-0.0602854
1.30033
-0.018749
0.919096
0.01574
0.583091
0.0402992
0.315794
0.0464774
0.153664
0.0286597
0.074134
0.0306783
-0.00422146
0.321455
-0.0108383
0.845183
-0.0186663
1.263
-0.0277977
1.58198
-0.0384593
1.87633
-0.0505761
2.15685
-0.0648774
2.44578
-0.0813608
2.75661
-0.0996564
3.07049
-0.117991
3.36747
-0.12927
3.04139
-0.125912
2.28779
-0.102891
1.71942
-0.0681929
1.26563
-0.018956
0.869859
0.028762
0.535373
0.0643156
0.28024
0.0542777
0.163702
0.0236286
0.104783
0.0543069
-0.00418115
0.325636
-0.0110507
0.852052
-0.0186092
1.27056
-0.0271862
1.59056
-0.0373462
1.88649
-0.0491257
2.16863
-0.0632843
2.45993
-0.0800034
2.77333
-0.0991046
3.08959
-0.119111
3.38747
-0.131939
3.05421
-0.132351
2.2882
-0.118507
1.70557
-0.0793001
1.22642
-0.0237014
0.81426
0.0475123
0.464159
0.143002
0.18475
0.206385
0.100319
0.186097
0.125071
0.240404
-0.00401759
0.329654
-0.0104728
0.858507
-0.0179821
1.27807
-0.0267705
1.59935
-0.037284
1.89701
-0.0495863
2.18093
-0.0646733
2.47502
-0.082899
2.79155
-0.104492
3.11119
-0.128806
3.41179
-0.148365
3.07377
-0.155341
2.29517
-0.139313
1.68954
-0.103658
1.19077
-0.037847
0.74845
0.0213358
0.404976
-0.0457793
0.251865
-0.35314
0.40768
-0.945388
0.717319
0.902219
-1.6072
-0.00391706
0.333571
-0.0105849
0.865175
-0.0179352
1.28542
-0.0263944
1.6078
-0.03667
1.90728
-0.0490366
2.19329
-0.0645382
2.49052
-0.0837858
2.8108
-0.107403
3.1348
-0.135258
3.43964
-0.158943
3.09746
-0.17036
2.30659
-0.172827
1.69201
-0.143507
1.16145
-0.106724
0.711666
-0.208626
0.506878
-0.693948
0.737187
-1.45407
1.1678
-2.05875
1.322
1.21564
-2.37217
-0.0036784
0.337249
-0.00979799
0.871295
-0.0169141
1.29254
-0.0253822
1.61627
-0.0357071
1.91761
-0.0482359
2.20582
-0.0641864
2.50647
-0.0843258
2.83094
-0.109718
3.1602
-0.141294
3.47122
-0.172442
3.12861
-0.193938
2.32809
-0.196426
1.6945
-0.175549
1.14057
-0.260977
0.797094
-0.752787
0.998689
-1.55897
1.54337
-2.11674
1.72558
-2.35414
1.55939
1.32916
-2.46767
-0.00357362
0.340823
-0.00969602
0.877417
-0.0165856
1.29943
-0.0246898
1.62438
-0.0347331
1.92765
-0.0472708
2.21836
-0.063523
2.52273
-0.0845402
2.85196
-0.111877
3.18753
-0.14724
3.50658
-0.183654
3.16502
-0.211459
2.35589
-0.233375
1.71642
-0.305695
1.21289
-0.674428
1.16583
-1.44617
1.77043
-2.03173
2.12893
-2.27016
1.964
-2.38261
1.67184
1.39255
-2.44599
-0.00325629
0.344079
-0.00875003
0.882911
-0.0153003
1.30598
-0.0233211
1.6324
-0.0333885
1.93772
-0.0460002
2.23097
-0.0625762
2.5393
-0.0843608
2.87374
-0.113363
3.21653
-0.152519
3.54574
-0.19733
3.20983
-0.239094
2.39765
-0.275107
1.75243
-0.456731
1.39451
-1.097
1.8061
-1.79401
2.46744
-2.1105
2.44543
-2.25757
2.11106
-2.33932
1.7536
1.45865
-2.40542
-0.00326342
0.347343
-0.00897995
0.888627
-0.0155561
1.31256
-0.0234707
1.64031
-0.0336402
1.94789
-0.0465367
2.24387
-0.0636189
2.55638
-0.0863936
2.89652
-0.117365
3.24751
-0.16035
3.58872
-0.211074
3.26056
-0.25501
2.44159
-0.340511
1.83793
-0.73847
1.79247
-1.49355
2.56118
-1.96315
2.93704
-2.16276
2.64503
-2.26861
2.21692
-2.34584
1.83082
1.52181
-2.409
-0.00332133
0.350664
-0.00894042
0.894246
-0.0158207
1.31944
-0.0243484
1.64884
-0.035182
1.95872
-0.0487784
2.25747
-0.0667945
2.5744
-0.0908728
2.92059
-0.123878
3.28051
-0.170954
3.6358
-0.227781
3.31738
-0.288965
2.50277
-0.475005
2.02397
-1.04534
2.36281
-1.68035
3.19619
-1.95254
3.20923
-2.09885
2.79135
-2.21266
2.33073
-2.30634
1.92449
1.58335
-2.36788
-0.0034638
0.354128
-0.00984904
0.900632
-0.0172215
1.32681
-0.0260131
1.65763
-0.037193
1.9699
-0.0514189
2.27169
-0.070298
2.59328
-0.0956922
2.94599
-0.130871
3.31569
-0.181825
3.68675
-0.243802
3.37936
-0.327558
2.58653
-0.610194
2.30661
-1.2636
3.01622
-1.75056
3.68314
-1.95762
3.41628
-2.09683
2.93057
-2.22071
2.4546
-2.33085
2.03464
1.642
-2.3895
-0.00339743
0.357525
-0.00953888
0.906773
-0.0172816
1.33455
-0.0268811
1.66723
-0.0388618
1.98188
-0.0538486
2.28668
-0.0737359
2.61317
-0.100523
2.97278
-0.137734
3.3529
-0.192234
3.74125
-0.260071
3.4472
-0.384362
2.71082
-0.772196
2.69444
-1.40986
3.65389
-1.76008
4.03336
-1.93254
3.58874
-2.03409
3.03212
-2.12269
2.5432
-2.18936
2.1013
1.63461
-2.18197
-0.00342419
0.36095
-0.0105306
0.913879
-0.0188857
1.34291
-0.0287223
1.67707
-0.0410655
1.99422
-0.0567448
2.30236
-0.0775334
2.63396
-0.105632
3.00087
-0.14493
3.3922
-0.201699
3.79802
-0.279372
3.52487
-0.448652
2.8801
-0.903383
3.14917
-1.46022
4.21072
-1.72087
4.29402
-1.87208
3.73995
-1.96561
3.12565
-1.96635
2.54394
-1.89645
2.0314
1.59709
-1.85893
-0.00319872
0.364148
-0.00974945
0.92043
-0.0183814
1.35154
-0.0291029
1.68779
-0.0422388
2.00736
-0.058456
2.31857
-0.0797969
2.6553
-0.10847
3.02955
-0.148299
3.43203
-0.205062
3.85478
-0.290834
3.61064
-0.495182
3.08445
-0.98694
3.64093
-1.42705
4.65083
-1.59131
4.45828
-1.65792
3.80656
-1.66224
3.12998
-1.51461
2.39631
-1.01523
1.53202
0.581857
-0.0028126
0.366961
-0.0106429
0.928261
-0.020039
1.36093
-0.0310274
1.69878
-0.0447988
2.02113
-0.0623019
2.33608
-0.0854628
2.67846
-0.11677
3.06085
-0.160641
3.4759
-0.223982
3.91813
-0.32644
3.7131
-0.580545
3.33855
-1.12155
4.18194
-1.47866
5.00793
-1.5777
4.55731
-1.57573
3.80459
-1.47218
3.02642
-1.23342
2.15755
-0.630326
0.92893
-0.0484682
-0.00252139
0.369482
-0.00902628
0.934765
-0.018527
1.37043
-0.0308052
1.71106
-0.045997
2.03632
-0.0648823
2.35496
-0.0900084
2.70358
-0.124186
3.09503
-0.17248
3.52419
-0.242514
3.98816
-0.3656
3.83619
-0.679981
3.65293
-1.24007
4.74203
-1.49936
5.26722
-1.55804
4.61599
-1.53547
3.78203
-1.33365
2.82459
-0.781057
1.60496
-0.10839
0.256263
-0.156858
-0.00153237
0.371015
-0.00954461
0.942778
-0.0198583
1.38075
-0.0321849
1.72338
-0.0477809
2.05192
-0.0679201
2.3751
-0.0949198
2.73058
-0.131809
3.13192
-0.18382
3.57621
-0.261332
4.06567
-0.40979
3.98465
-0.782236
4.02538
-1.31737
5.27716
-1.49322
5.44307
-1.52405
4.64683
-1.43589
3.69387
-1.09962
2.48832
-0.312443
0.817784
0.0247769
-0.0809573
-0.132081
-0.000995367
0.37201
-0.00647764
0.94826
-0.0163897
1.39066
-0.0301344
1.73713
-0.047234
2.06902
-0.0686829
2.39655
-0.0975517
2.75945
-0.137144
3.17151
-0.192476
3.63154
-0.279164
4.15236
-0.454633
4.16011
-0.89235
4.4631
-1.3627
5.74751
-1.47824
5.5586
-1.48091
4.6495
-1.25687
3.46983
-0.685188
1.91664
-0.0629345
0.195531
0.0300555
-0.173947
-0.102026
9.03782e-05
0.37192
-0.00608154
0.954432
-0.0165915
1.40117
-0.0300682
1.7506
-0.0470022
2.08595
-0.0695715
2.41912
-0.100149
2.79003
-0.141907
3.21327
-0.200099
3.68973
-0.295273
4.24753
-0.496191
4.36103
-0.984135
4.95104
-1.35728
6.12066
-1.42203
5.62334
-1.37569
4.60317
-1.08774
3.18188
-0.322595
1.15149
0.00418179
-0.131247
0.0145395
-0.184305
-0.087486
0.00322659
0.368693
0.000688596
0.95697
-0.00968543
1.41154
-0.0246832
1.7656
-0.0429574
2.10423
-0.066701
2.44286
-0.0986434
2.82197
-0.142447
3.25707
-0.203934
3.75122
-0.308062
4.35166
-0.535693
4.58866
-1.04718
5.46253
-1.32211
6.39559
-1.36174
5.66297
-1.22243
4.46386
-0.770177
2.72963
-0.0688919
0.450203
0.0439878
-0.244126
0.0239503
-0.164268
-0.0635357
0.00426361
0.364429
0.00215416
0.959079
-0.00783704
1.42154
-0.0214374
1.7792
-0.0386154
2.12141
-0.0631102
2.46736
-0.0962054
2.85507
-0.14142
3.30229
-0.204916
3.81471
-0.316055
4.4628
-0.573137
4.84574
-1.068
5.9574
-1.25759
6.58518
-1.26748
5.67286
-1.04811
4.24449
-0.459609
2.14112
-0.0183589
0.00895296
-0.00667889
-0.255807
0.00472838
-0.175675
-0.0588073
0.0087062
0.355723
0.0104341
0.957351
0.00385248
1.42812
-0.00992261
1.79298
-0.0287624
2.14024
-0.0537977
2.49239
-0.0871594
2.88843
-0.132963
3.34809
-0.198764
3.88051
-0.317213
4.58125
-0.59638
5.12491
-1.04619
6.4072
-1.17032
6.70932
-1.15334
5.65588
-0.894036
3.98519
-0.263679
1.51077
-0.0698501
-0.184876
-0.0387231
-0.286934
-0.0143602
-0.200038
-0.0731675
0.0112364
0.344487
0.0156303
0.952957
0.0104646
1.43328
0.000465215
1.80298
-0.0175861
2.1583
-0.0418228
2.51663
-0.0750541
2.92166
-0.120826
3.39386
-0.18648
3.94617
-0.30764
4.70241
-0.593887
5.41116
-0.981471
6.79479
-1.04496
6.77281
-0.977441
5.58836
-0.675764
3.68351
-0.0699924
0.904994
0.0156107
-0.270479
0.000625542
-0.271948
-0.00151587
-0.197896
-0.0746834
0.0185231
0.325964
0.0305459
0.940935
0.0300209
1.43381
0.0190861
1.81391
0.00128079
2.1761
-0.0212992
2.53921
-0.0531298
2.95349
-0.0974755
3.43821
-0.162336
4.01103
-0.284524
4.8246
-0.564429
5.69106
-0.870464
7.10082
-0.906225
6.80857
-0.801507
5.48364
-0.442325
3.32433
0.0688298
0.393839
0.0793681
-0.281017
0.0589665
-0.251547
0.0221847
-0.161114
-0.0524986
0.0241763
0.301787
0.042047
0.923064
0.0448993
1.43096
0.0385032
1.82031
0.0265969
2.18801
0.00532587
2.56048
-0.0244445
2.98326
-0.0660048
3.47977
-0.127058
4.07208
-0.241831
4.93937
-0.490299
5.93953
-0.712143
7.32267
-0.736506
6.83293
-0.636875
5.38401
-0.302152
2.98961
0.00451617
0.0871714
0.0210743
-0.297575
0.0321294
-0.262602
0.0154233
-0.144408
-0.0370753
0.0352167
0.266571
0.0658059
0.892475
0.0777284
1.41903
0.074613
1.82342
0.0635476
2.19907
0.0444831
2.57955
0.0177519
3.00999
-0.020375
3.5179
-0.0758379
4.12754
-0.176647
5.04018
-0.379575
6.14246
-0.533091
7.47618
-0.55968
6.85952
-0.461144
5.28548
-0.189235
2.7177
-0.0751343
-0.0269294
-0.0530632
-0.319646
-0.0184595
-0.297206
-0.0006399
-0.162228
-0.0377152
0.0446485
0.221922
0.0870309
0.850092
0.106946
1.39912
0.111889
1.81848
0.108426
2.20254
0.0947533
2.59322
0.07369
3.03106
0.042078
3.54951
-0.00832731
4.17795
-0.0824987
5.11435
-0.22091
6.28087
-0.310782
7.56605
-0.318918
6.86765
-0.259538
5.2261
-0.0856171
2.54378
-0.101793
-0.010754
-0.0735372
-0.347902
-0.0365366
-0.334206
-0.00777721
-0.190987
-0.0454925
0.0581724
0.16375
0.121282
0.786983
0.159168
1.36123
0.172039
1.80561
0.171786
2.20279
0.161728
2.60328
0.14689
3.04589
0.123853
3.57255
0.0881665
4.21364
0.0385896
5.16393
-0.0170363
6.3365
-0.0487346
7.59775
-0.0488817
6.8678
-0.00714863
5.18436
0.0563787
2.48025
-0.0742912
0.119916
-0.0876218
-0.334571
-0.0525891
-0.369239
-0.00228907
-0.241287
-0.0477815
0.0600868
0.103663
0.150949
0.696121
0.207484
1.3047
0.235139
1.77795
0.247654
2.19027
0.247251
2.60368
0.240796
3.05235
0.22932
3.58402
0.211181
4.23177
0.190444
5.18466
0.234054
6.29289
0.278566
7.55324
0.303953
6.84241
0.228724
5.25959
0.0100892
2.69889
-0.224164
0.35417
-0.279119
-0.279617
-0.20664
-0.441717
-0.0758356
-0.372092
-0.123617
0.0496178
0.0540453
0.184592
0.561147
0.281968
1.20732
0.328751
1.73117
0.348611
2.17041
0.356669
2.59562
0.355879
3.05314
0.356318
3.58358
0.357487
4.23061
0.37064
5.17151
0.519673
6.14385
0.65768
7.41523
0.644041
6.85605
0.42734
5.47629
-0.0779063
3.20413
-0.536115
0.812378
-0.59709
-0.218641
-0.46486
-0.573948
-0.229421
-0.607531
-0.353038
0.0343526
0.0196927
0.219142
0.376358
0.346832
1.07963
0.425712
1.65229
0.468226
2.1279
0.490956
2.57289
0.500082
3.04401
0.515383
3.56828
0.540523
4.20546
0.592253
5.11978
0.818893
5.91721
1.16306
7.07107
1.32542
6.69369
1.36831
5.4334
0.913668
3.65878
0.152974
1.57307
-0.329613
0.263946
-0.486086
-0.417475
-0.277893
-0.815724
-0.630931
0.0305768
-0.0108841
0.235182
0.171752
0.450472
0.864341
0.567657
1.5351
0.621139
2.07442
0.654406
2.53962
0.673721
3.0247
0.696543
3.54546
0.744474
4.15753
0.851949
5.01231
1.19832
5.57085
1.79636
6.47302
2.15428
6.33577
2.41302
5.17466
2.3101
3.7617
1.58685
2.29632
0.86553
0.985268
0.332206
0.115849
0.0480855
-0.531603
-0.582845
0.0236194
-0.0345035
0.157402
0.0379695
0.494455
0.527288
0.694119
1.33544
0.796845
1.97169
0.84902
2.48745
0.887006
2.98671
0.914288
3.51818
0.981133
4.09069
1.11269
4.88075
1.50026
5.18327
2.27488
5.6984
2.66265
5.94801
2.84375
4.99356
2.68773
3.91772
2.18563
2.79841
1.55038
1.62052
1.00781
0.65842
0.399102
0.0771058
-0.183744
0.00188616
-0.0363897
0.0771838
-0.0373282
0.410579
0.193894
0.717929
1.02809
0.862539
1.82708
0.900345
2.44964
0.906478
2.98058
0.890408
3.53425
0.890033
4.09106
0.930053
4.84073
1.09096
5.02236
1.53597
5.25339
1.71026
5.77372
1.74835
4.95547
1.65731
4.00876
1.41231
3.04341
1.01249
2.02034
0.586252
1.08466
0.246464
0.416894
0.0627201
0.00382643
-0.0402161
0.0434367
-0.0769384
0.211924
0.0254061
0.549669
0.690345
0.726948
1.6498
0.793199
2.38339
0.807273
2.96651
0.800064
3.54146
0.781078
4.11005
0.799963
4.82185
0.879703
4.94262
1.18701
4.94608
1.37355
5.58718
1.38854
4.94048
1.33023
4.06706
1.16796
3.20568
0.880587
2.30772
0.553467
1.41178
0.231064
0.739297
0.293784
0.00263053
-0.0428466
0.0173527
-0.0916606
0.0870197
-0.0442608
0.382196
0.395169
0.584514
1.44749
0.674542
2.29337
0.697
2.94405
0.696261
3.54219
0.670177
4.13613
0.665204
4.82682
0.694127
4.9137
0.879626
4.76059
1.05759
5.40921
1.05837
4.9397
1.00293
4.1225
0.879515
3.3291
0.671918
2.51532
0.417217
1.66648
0.168899
0.987615
0.462683
-0.00263791
-0.0402087
0.000793484
-0.095092
0.0364301
-0.0798974
0.243817
0.187782
0.460136
1.23117
0.56337
2.19013
0.583276
2.92414
0.579828
3.54564
0.552262
4.1637
0.53216
4.84692
0.537561
4.9083
0.64455
4.6536
0.786146
5.26762
0.77676
4.94909
0.717248
4.18201
0.620075
3.42627
0.472296
2.6631
0.285586
1.85319
0.10741
1.16579
0.570093
-0.00534938
-0.0348593
0.000870061
-0.101311
0.0299708
-0.108998