/*--------------------------------*- C++ -*----------------------------------*\
| =========                 |                                                 |
| \\      /  F ield         | OpenFOAM: The Open Source CFD Toolbox           |
|  \\    /   O peration     | Version:  v2012                                 |
|   \\  /    A nd           | Website:  www.openfoam.com                      |
|    \\/     M anipulation  |                                                 |
\*---------------------------------------------------------------------------*/
FoamFile
{
    version     2.0;
    format      ascii;
    class       volScalarField;
    location    "48";
    object      p;
}
// * * * * * * * * * * * * * * * * * * * * * * * * * * * * * * * * * * * * * //

dimensions      [0 2 -2 0 0 0 0];


internalField   nonuniform List<scalar> 
2200
(
0.776116
0.754616
0.738708
0.723039
0.708425
0.6959
0.685537
0.677425
0.67171
0.668739
0.669185
0.672973
0.679299
0.687848
0.698523
0.711279
0.726057
0.741952
0.75798
0.779482
0.708557
0.705298
0.702371
0.698248
0.692782
0.686303
0.679676
0.673712
0.669195
0.666781
0.667248
0.670524
0.675675
0.68211
0.689078
0.695819
0.701477
0.705592
0.708461
0.71181
0.668643
0.668862
0.670918
0.672262
0.672651
0.671792
0.669805
0.667117
0.664556
0.663046
0.663575
0.665996
0.669247
0.67245
0.674776
0.67578
0.675497
0.674472
0.672794
0.672549
0.646168
0.647617
0.650213
0.652665
0.655096
0.657107
0.658253
0.658471
0.65808
0.657762
0.658362
0.659708
0.660891
0.661261
0.660562
0.658882
0.656717
0.654497
0.651884
0.650478
0.631846
0.633819
0.636631
0.639456
0.642307
0.645125
0.647567
0.649408
0.650613
0.651388
0.652082
0.652515
0.652246
0.651113
0.649235
0.64685
0.644297
0.641578
0.638789
0.636861
0.624518
0.626117
0.628314
0.630838
0.633502
0.63616
0.638738
0.641137
0.643129
0.644604
0.645418
0.645397
0.644525
0.642988
0.641059
0.638895
0.636554
0.634207
0.632108
0.630532
0.621133
0.622157
0.623422
0.62528
0.62741
0.62956
0.631734
0.634002
0.636193
0.637997
0.638977
0.638945
0.638125
0.636879
0.635457
0.633866
0.632154
0.630567
0.629443
0.628427
0.618492
0.619159
0.619789
0.62109
0.622702
0.624378
0.626108
0.627998
0.630008
0.631909
0.63309
0.633331
0.632972
0.632319
0.631519
0.630549
0.629463
0.628522
0.628069
0.627392
0.615327
0.615774
0.616165
0.617151
0.618398
0.619766
0.621238
0.622868
0.624668
0.626561
0.628001
0.628723
0.628921
0.628818
0.628485
0.627978
0.627367
0.626805
0.626607
0.626143
0.611367
0.611666
0.612025
0.612886
0.613982
0.615231
0.616638
0.618211
0.619962
0.621912
0.623675
0.624901
0.625591
0.625892
0.625916
0.625713
0.625363
0.625001
0.624857
0.624536
0.606707
0.606908
0.607276
0.608103
0.609197
0.610502
0.612007
0.613697
0.615598
0.617749
0.619904
0.621591
0.622691
0.623299
0.623545
0.623568
0.623396
0.623175
0.623048
0.622816
0.601608
0.601752
0.602125
0.602932
0.604067
0.605484
0.60718
0.609143
0.611374
0.613924
0.616581
0.618753
0.620196
0.621052
0.621473
0.621635
0.621625
0.621535
0.62144
0.621259
0.596146
0.596255
0.596631
0.597445
0.598658
0.600241
0.60218
0.604492
0.607217
0.610373
0.613614
0.616224
0.618002
0.619121
0.619778
0.620114
0.620289
0.620326
0.620271
0.620117
0.590274
0.590342
0.590721
0.591568
0.592909
0.594683
0.596893
0.599592
0.602853
0.606699
0.610684
0.613888
0.616075
0.617568
0.618563
0.619167
0.619549
0.619707
0.619694
0.61955
0.583899
0.583938
0.584352
0.585252
0.586709
0.58867
0.59116
0.594268
0.598125
0.602765
0.6076
0.611626
0.614496
0.616487
0.617896
0.618848
0.619439
0.619732
0.619765
0.619629
0.577004
0.576965
0.577374
0.578354
0.580025
0.58222
0.585024
0.588614
0.593196
0.598804
0.604729
0.609682
0.613343
0.615977
0.617895
0.619243
0.620105
0.620552
0.620632
0.620497
0.569255
0.569233
0.569684
0.570805
0.572684
0.575193
0.578457
0.582671
0.588069
0.594784
0.602005
0.608131
0.612749
0.616175
0.618671
0.620441
0.621599
0.622205
0.622344
0.622203
0.560528
0.560553
0.560962
0.562151
0.564383
0.567354
0.571231
0.576231
0.582645
0.590701
0.599504
0.607139
0.612884
0.617171
0.620344
0.622583
0.624057
0.624824
0.625018
0.624868
0.550388
0.55036
0.550902
0.55233
0.55488
0.558409
0.563118
0.569221
0.57703
0.58682
0.597523
0.606792
0.613879
0.619124
0.622976
0.625754
0.627595
0.628531
0.628775
0.628609
0.538366
0.538293
0.538963
0.540791
0.543905
0.548223
0.554044
0.56164
0.571391
0.583464
0.596382
0.607368
0.615738
0.622056
0.626734
0.630096
0.632319
0.633429
0.633721
0.63354
0.524128
0.524008
0.524769
0.526993
0.530903
0.536342
0.543651
0.553165
0.565299
0.580094
0.595595
0.608671
0.618573
0.626084
0.631674
0.635756
0.638408
0.639695
0.640034
0.639827
0.506804
0.506708
0.507689
0.510421
0.515274
0.522124
0.531332
0.543205
0.558145
0.576132
0.594805
0.610486
0.622304
0.631225
0.637949
0.642791
0.645919
0.647407
0.647792
0.647552
0.485371
0.485208
0.486493
0.490011
0.496247
0.50509
0.516851
0.531837
0.550272
0.572013
0.594316
0.612917
0.62696
0.637563
0.645515
0.651305
0.654987
0.656663
0.657071
0.656781
0.457583
0.457588
0.459631
0.464536
0.473004
0.484913
0.500448
0.519667
0.542557
0.568788
0.595075
0.6167
0.632938
0.645236
0.654528
0.661294
0.665494
0.667333
0.667728
0.667379
0.420482
0.420718
0.42423
0.432048
0.444533
0.461396
0.48222
0.506904
0.535216
0.566607
0.59718
0.621933
0.640449
0.654446
0.665053
0.672718
0.677316
0.679219
0.679557
0.679152
0.37085
0.371247
0.378192
0.391237
0.410127
0.434129
0.46197
0.493296
0.527831
0.564985
0.600277
0.628325
0.649158
0.664954
0.676917
0.68538
0.690169
0.691923
0.692078
0.691707
0.305076
0.307883
0.322958
0.344185
0.371887
0.404667
0.440554
0.479287
0.520721
0.56429
0.604825
0.636864
0.660831
0.679022
0.692746
0.702488
0.707684
0.70929
0.70927
0.709094
0.23012
0.239555
0.264615
0.295634
0.3334
0.375177
0.419175
0.465545
0.514198
0.564513
0.611209
0.648116
0.675687
0.696738
0.71284
0.723994
0.729565
0.730842
0.730749
0.730745
0.163042
0.177837
0.209219
0.248973
0.296196
0.346807
0.398845
0.452992
0.509053
0.566336
0.61883
0.659979
0.690774
0.714294
0.731967
0.74427
0.750269
0.751536
0.751904
0.7519
0.111814
0.125043
0.161827
0.207772
0.262343
0.320434
0.379886
0.441354
0.504319
0.568013
0.62561
0.671009
0.704873
0.730578
0.750028
0.763469
0.769906
0.771841
0.772043
0.772103
0.0696162
0.0820948
0.122511
0.17241
0.232467
0.296529
0.362397
0.430281
0.499432
0.569099
0.6324
0.681506
0.717796
0.745636
0.76647
0.78071
0.787836
0.790168
0.790376
0.790476
0.0333308
0.0461037
0.0892909
0.142019
0.2063
0.275087
0.346336
0.419849
0.494843
0.570398
0.638501
0.69079
0.729718
0.758972
0.781003
0.795886
0.803297
0.805885
0.806173
0.806273
0.00166447
0.0146242
0.0599188
0.115227
0.183067
0.255791
0.331647
0.4101
0.49018
0.570627
0.642792
0.698821
0.739657
0.770339
0.793056
0.80842
0.816345
0.819108
0.819533
0.819607
-0.0267386
-0.0136685
0.0332002
0.0909542
0.16198
0.238129
0.317952
0.40062
0.485086
0.570322
0.647261
0.70586
0.748289
0.779905
0.803123
0.81894
0.827051
0.830114
0.830616
0.830673
-0.052746
-0.0396111
0.0084837
0.0685844
0.142376
0.221509
0.304753
0.39112
0.479766
0.569569
0.650108
0.711194
0.755589
0.788128
0.811779
0.827749
0.836329
0.839503
0.840083
0.840101
-0.0771536
-0.0637316
-0.0146902
0.0475993
0.12379
0.205537
0.291802
0.381543
0.474019
0.567674
0.65195
0.716386
0.76208
0.795378
0.81956
0.83557
0.844182
0.847529
0.848046
0.847986
-0.100124
-0.0865121
-0.0365982
0.0276028
0.105858
0.189967
0.278976
0.371711
0.467488
0.564903
0.65341
0.72053
0.767895
0.802325
0.826617
0.84255
0.851086
0.854318
0.854908
0.854748
-0.121852
-0.108169
-0.0574906
0.00833639
0.0884069
0.174655
0.266097
0.361455
0.460264
0.561431
0.653762
0.723952
0.773645
0.808722
0.833224
0.849026
0.857258
0.860443
0.860974
0.860888
-0.142693
-0.128846
-0.0775531
-0.0103455
0.0712989
0.159443
0.253029
0.350778
0.452445
0.557099
0.653344
0.72719
0.779104
0.81526
0.83975
0.85515
0.863225
0.866141
0.866657
0.866555
-0.16304
-0.148719
-0.0969562
-0.0285542
0.0544524
0.144275
0.239791
0.339757
0.44408
0.551985
0.652183
0.729749
0.784254
0.821924
0.846613
0.861543
0.868952
0.871582
0.871959
0.871864
-0.183027
-0.167992
-0.115794
-0.04633
0.0378471
0.129155
0.226422
0.328415
0.435158
0.546117
0.650171
0.731584
0.78936
0.82909
0.854231
0.868364
0.874916
0.876704
0.876938
0.876823
-0.202561
-0.186779
-0.134131
-0.0636859
0.0215173
0.11413
0.212945
0.316744
0.425659
0.539409
0.647051
0.732501
0.79416
0.83667
0.862994
0.876295
0.881129
0.881513
0.881399
0.881294
-0.221526
-0.205133
-0.151974
-0.0806029
0.00550072
0.0992296
0.199369
0.304752
0.415624
0.531892
0.642933
0.732596
0.798488
0.844762
0.873343
0.886052
0.888625
0.886048
0.885496
0.886324
-0.239854
-0.223004
-0.169312
-0.0970715
-0.0101693
0.0845014
0.185748
0.292521
0.40518
0.523627
0.637509
0.731301
0.802057
0.852942
0.885358
0.898995
0.899134
0.892476
0.887325
0.885824
-0.25754
-0.240331
-0.186098
-0.113061
-0.0254561
0.0700038
0.172175
0.280144
0.394345
0.5146
0.630921
0.728644
0.804168
0.860925
0.898854
0.916023
0.917447
0.905364
0.904004
0.908261
-0.27457
-0.257026
-0.202282
-0.128533
-0.0403073
0.0558171
0.158748
0.26769
0.383134
0.504949
0.623308
0.724141
0.804582
0.867604
0.912787
0.936846
0.942245
0.913771
0.872915
0.836588
-0.290901
-0.2731
-0.217879
-0.143541
-0.0548121
0.0418258
0.145316
0.254958
0.371312
0.494402
0.614439
0.717614
0.802196
0.871855
0.926057
0.960377
0.980774
0.964282
0.98114
1.03878
-0.30648
-0.288575
-0.232976
-0.15822
-0.0691455
0.0278051
0.1316
0.241617
0.358499
0.482465
0.603646
0.708244
0.795956
0.870859
0.930338
0.968939
0.982668
0.962958
0.92263
0.936781
-0.321291
-0.303442
-0.247519
-0.172504
-0.0832291
0.0138454
0.117718
0.227831
0.344883
0.469197
0.590846
0.69602
0.784026
0.860104
0.919953
0.957584
0.9476
0.895232
0.831897
0.819815
-0.335312
-0.317678
-0.261513
-0.186403
-0.0970668
-5.18223e-05
0.103694
0.213651
0.330511
0.454604
0.575975
0.680419
0.766244
0.837579
0.891466
0.901861
0.868111
0.792426
0.718479
0.69716
-0.34859
-0.331296
-0.274973
-0.199935
-0.110682
-0.0138961
0.0895421
0.199102
0.315393
0.438671
0.559011
0.661327
0.741536
0.80098
0.830291
0.818636
0.762555
0.661742
0.574906
0.553371
-0.361579
-0.344688
-0.288303
-0.213481
-0.12443
-0.0279939
0.0749976
0.183948
0.299326
0.421254
0.539707
0.638167
0.710991
0.754759
0.750088
0.716149
0.606885
0.485271
0.378427
0.351859
-0.375181
-0.358676
-0.302202
-0.227659
-0.138885
-0.0428319
0.0596399
0.167834
0.282056
0.402159
0.517728
0.610707
0.676334
0.696179
0.662741
0.576251
0.421225
0.2693
0.14065
0.113537
-0.389912
-0.373636
-0.317
-0.24272
-0.154228
-0.0585435
0.0433718
0.150706
0.263573
0.381357
0.492951
0.5799
0.634777
0.626903
0.574457
0.425954
0.226844
0.0148384
-0.164806
-0.212763
-0.40589
-0.389699
-0.332745
-0.25867
-0.170442
-0.07511
0.0262103
0.132593
0.24394
0.359006
0.465514
0.547072
0.586898
0.547579
0.460804
0.27357
0.0427407
-0.245619
-0.566802
-0.714072
-0.42318
-0.406906
-0.349566
-0.275616
-0.187583
-0.092598
0.00808942
0.113436
0.223101
0.335092
0.435724
0.511218
0.533641
0.463752
0.328067
0.122767
-0.111198
-0.455018
-1.04233
-1.61459
-0.441869
-0.425414
-0.367517
-0.293597
-0.205676
-0.111002
-0.0109539
0.0933118
0.201204
0.310052
0.404747
0.472388
0.47668
0.390089
0.199641
-0.0342028
-0.237105
-0.472164
-1.02916
-2.54863
-0.461967
-0.445209
-0.38672
-0.312763
-0.224879
-0.130521
-0.0311572
0.0719461
0.177915
0.283445
0.372289
0.430577
0.415213
0.33237
0.106403
-0.131973
-0.280148
-0.317743
-0.308302
-0.697146
-0.483418
-0.466584
-0.40732
-0.33339
-0.245598
-0.151648
-0.0531363
0.0485752
0.1523
0.253929
0.337331
0.385243
0.35447
0.283844
0.0570341
-0.146094
-0.257204
-0.265234
-0.212114
-0.252576
-0.506033
-0.489247
-0.429343
-0.355566
-0.267904
-0.174512
-0.077053
0.0230349
0.124172
0.221316
0.300101
0.338237
0.300886
0.23114
0.025017
-0.136413
-0.218802
-0.226505
-0.274352
-0.278826
-0.529871
-0.513141
-0.452655
-0.379258
-0.291794
-0.199126
-0.102936
-0.0047312
0.093509
0.185992
0.260223
0.288952
0.254051
0.17103
-0.00286025
-0.126906
-0.197237
-0.173218
-0.194104
-0.195665
-0.55461
-0.537718
-0.477217
-0.404397
-0.317105
-0.225421
-0.130718
-0.0346091
0.0604529
0.148425
0.21816
0.236292
0.213218
0.10355
-0.0377546
-0.121683
-0.161651
-0.207705
-0.183197
-0.191504
-0.580034
-0.562727
-0.502812
-0.430755
-0.343634
-0.253222
-0.160184
-0.0663813
0.0251263
0.108912
0.174486
0.182737
0.170826
0.0428159
-0.0747559
-0.139559
-0.118732
-0.178222
-0.158689
-0.163484
-0.605225
-0.587694
-0.529322
-0.457967
-0.371014
-0.282297
-0.191063
-0.0996983
-0.0122185
0.0678112
0.130558
0.131271
0.119949
-0.00930795
-0.102441
-0.154592
-0.141777
-0.158598
-0.163833
-0.162229
-0.629796
-0.612407
-0.555885
-0.485285
-0.398958
-0.312248
-0.22291
-0.134134
-0.0510423
0.0253957
0.0866937
0.0835663
0.063652
-0.053148
-0.118209
-0.149657
-0.185772
-0.15954
-0.166386
-0.161192
-0.652738
-0.636081
-0.5815
-0.511895
-0.427033
-0.342532
-0.25522
-0.169154
-0.0904539
-0.017964
0.0426929
0.0394851
0.0087643
-0.0906213
-0.135582
-0.126216
-0.19513
-0.145058
-0.159135
-0.152108
-0.673371
-0.657822
-0.605122
-0.53683
-0.454835
-0.372332
-0.287268
-0.20408
-0.129441
-0.0617513
-0.00171588
-0.00209334
-0.0388593
-0.109541
-0.148961
-0.112713
-0.157003
-0.134994
-0.140339
-0.137696
-0.690146
-0.676218
-0.626086
-0.559655
-0.481128
-0.40065
-0.318251
-0.238142
-0.166993
-0.105072
-0.0463623
-0.0430351
-0.0757189
-0.112693
-0.142903
-0.124244
-0.135074
-0.134904
-0.133205
-0.132974
-0.702192
-0.690333
-0.643276
-0.579374
-0.504501
-0.426549
-0.347141
-0.270313
-0.202229
-0.146639
-0.0894413
-0.082622
-0.111632
-0.107014
-0.119576
-0.13903
-0.126424
-0.139487
-0.135253
-0.135641
-0.708137
-0.698662
-0.655711
-0.594883
-0.523521
-0.448836
-0.372817
-0.299437
-0.234204
-0.184379
-0.129021
-0.121137
-0.157369
-0.119716
-0.0591968
-0.100065
-0.0978828
-0.132324
-0.142646
-0.145493
-0.707841
-0.700481
-0.661666
-0.604509
-0.537092
-0.466202
-0.393879
-0.324021
-0.261853
-0.216104
-0.163589
-0.158177
-0.210607
-0.192936
-0.0837713
-0.111915
-0.135832
-0.157856
-0.164302
-0.166015
-0.700344
-0.693087
-0.659441
-0.607189
-0.54424
-0.477496
-0.409058
-0.342396
-0.282864
-0.239226
-0.192111
-0.19616
-0.279973
-0.403437
-0.514115
-0.597215
-0.606315
-0.559171
-0.518987
-0.491297
-0.681028
-0.672951
-0.646646
-0.601269
-0.543884
-0.481738
-0.417205
-0.35301
-0.294255
-0.250904
-0.207838
-0.209814
-0.34717
-0.622312
-1.00351
-1.19913
-1.20192
-1.16012
-1.063
-0.983708
-0.641517
-0.633963
-0.622003
-0.587269
-0.536344
-0.47879
-0.41797
-0.354745
-0.293625
-0.245846
-0.203979
-0.17571
-0.268885
-0.450507
-0.679629
-0.752541
-0.683187
-0.599682
-0.523197
-0.474695
-0.597621
-0.594214
-0.592402
-0.565647
-0.522631
-0.46994
-0.411352
-0.347538
-0.280204
-0.21914
-0.164422
-0.0721752
0.0387069
0.22834
0.394448
0.567813
0.713706
0.807414
0.860485
0.913101
-0.572324
-0.573168
-0.565432
-0.54608
-0.50887
-0.458437
-0.399238
-0.333193
-0.256975
-0.172853
-0.0855482
0.0669363
0.305907
0.684555
1.05678
1.35541
1.55727
1.67411
1.72883
1.74367
-0.540669
-0.541585
-0.536151
-0.528123
-0.495822
-0.447087
-0.385815
-0.316184
-0.232737
-0.132227
-0.0225121
0.125746
0.389626
0.745394
1.09772
1.38988
1.59854
1.72015
1.77454
1.7916
-0.514517
-0.513507
-0.514026
-0.509811
-0.484302
-0.438185
-0.375132
-0.300704
-0.213659
-0.10725
0.00757918
0.120634
0.358739
0.660374
0.957967
1.21497
1.41406
1.53438
1.58806
1.60339
-0.497093
-0.494748
-0.496349
-0.490425
-0.474782
-0.432309
-0.367565
-0.289874
-0.202479
-0.0994022
0.00947234
0.087205
0.280419
0.53371
0.774097
0.98138
1.14773
1.24915
1.29359
1.30479
-0.489131
-0.486838
-0.486133
-0.48371
-0.474568
-0.428313
-0.361404
-0.282891
-0.198493
-0.106042
-0.00385546
0.0540397
0.19861
0.407962
0.59765
0.754379
0.879988
0.958506
0.992829
1.00182
-0.495936
-0.495427
-0.496266
-0.503248
-0.48903
-0.429323
-0.357012
-0.277547
-0.196455
-0.116932
-0.0211924
0.0279315
0.127649
0.293992
0.441963
0.558408
0.649802
0.709054
0.734477
0.739693
-0.495962
-0.497841
-0.50442
-0.508724
-0.486296
-0.422459
-0.347794
-0.26872
-0.191405
-0.124644
-0.0365807
0.00903756
0.0723547
0.200123
0.314142
0.400618
0.466911
0.509841
0.527342
0.533132
-0.44987
-0.451873
-0.462756
-0.464027
-0.441546
-0.385911
-0.320468
-0.249632
-0.179354
-0.124455
-0.0473285
-0.00455299
0.0348599
0.132162
0.216667
0.278672
0.327758
0.360057
0.373382
0.37781
-0.344547
-0.348914
-0.353823
-0.356209
-0.341377
-0.306996
-0.263813
-0.213522
-0.156866
-0.114138
-0.0519406
-0.0145762
0.0111718
0.0867931
0.147547
0.189962
0.226954
0.250938
0.26052
0.262847
-0.219673
-0.221972
-0.224707
-0.227156
-0.221413
-0.208131
-0.188899
-0.161849
-0.125776
-0.0949772
-0.0505011
-0.0199076
-0.00108762
0.0563969
0.099301
0.128757
0.152339
0.167033
0.173516
0.175052
-0.111711
-0.112971
-0.115134
-0.118986
-0.121032
-0.121546
-0.118428
-0.10864
-0.0910417
-0.072515
-0.0445893
-0.0222713
-0.00659207
0.035721
0.0641989
0.0835298
0.096964
0.104008
0.106185
0.106154
-0.0339155
-0.034846
-0.0366786
-0.0417527
-0.0499299
-0.0583673
-0.063662
-0.0643838
-0.0592484
-0.0513524
-0.0359627
-0.0211215
-0.00921792
0.0190826
0.0372437
0.0484406
0.0549821
0.057317
0.0566553
0.0555478
0.0119352
0.0113365
0.0097352
0.00422683
-0.00581313
-0.017337
-0.0268331
-0.0330402
-0.0346243
-0.0341437
-0.026597
-0.0176765
-0.00967687
0.00575024
0.0157587
0.0215486
0.0241913
0.0236019
0.0218705
0.0204534
0.0348251
0.0342823
0.0327778
0.0275493
0.0178679
0.00610355
-0.00472379
-0.0133212
-0.0181525
-0.0217509
-0.0183227
-0.0141608
-0.0106347
-0.0038528
0.000109372
0.00186763
0.00230384
0.000802416
-0.00126357
-0.00272518
0.0432178
0.0427946
0.0415513
0.0371446
0.028805
0.0182506
0.00760701
-0.00175297
-0.00804347
-0.013279
-0.0122266
-0.0113389
-0.0112038
-0.00927747
-0.00887915
-0.00897165
-0.0101002
-0.0121809
-0.0141283
-0.0155956
0.0434069
0.0431033
0.0421465
0.0387595
0.0322761
0.0237171
0.014434
0.00536027
-0.00131284
-0.00741832
-0.0079207
-0.00961226
-0.0118852
-0.0110697
-0.0120349
-0.0131471
-0.0153611
-0.0180892
-0.0199728
-0.0212577
0.0395928
0.0393822
0.0386815
0.0362053
0.0314389
0.0249962
0.0176032
0.00967519
0.00359945
-0.00314511
-0.00494062
-0.0072141
-0.0106749
-0.0109994
-0.0122536
-0.0144013
-0.0167933
-0.0188945
-0.0203477
-0.0214825
0.0341419
0.0340033
0.0334922
0.0317758
0.0284022
0.0237147
0.0181268
0.0116639
0.00658379
-0.000290815
-0.00308568
-0.00540689
-0.00802207
-0.00874296
-0.0103512
-0.0124592
-0.01453
-0.016133
-0.0171227
-0.0181315
0.0283806
0.028271
0.0278958
0.0266894
0.0242985
0.0209128
0.0166897
0.0115929
0.0076969
0.00157414
-0.00141038
-0.00385021
-0.00624581
-0.0065103
-0.00789993
-0.00966563
-0.011268
-0.0124765
-0.0130386
-0.0138436
0.0231476
0.0230579
0.0227855
0.0219336
0.0202435
0.0177734
0.0145307
0.0104688
0.0075022
0.0024379
-0.000125315
-0.00192092
-0.00416395
-0.00456077
-0.00569761
-0.0068766
-0.0079031
-0.0085725
-0.00876341
-0.0094414
0.0185859
0.0185132
0.0183107
0.0177292
0.0165988
0.0148194
0.0124857
0.00936031
0.00705124
0.00280683
0.000851571
-0.00121828
-0.00304543
-0.00245347
-0.00317944
-0.0036897
-0.00402471
-0.00419151
-0.00416226
-0.0047929
0.0148124
0.0147543
0.0146101
0.0142081
0.0134099
0.0121532
0.0104764
0.00805865
0.0063883
0.00298558
0.00129789
-0.000928838
-0.00247888
-0.00148531
-0.00091756
-0.000362967
-7.71011e-05
4.31666e-05
0.000198361
-0.000398563
0.0115698
0.0115374
0.0114572
0.0112344
0.0106942
0.0097629
0.00858975
0.00680756
0.00563005
0.00287111
0.00139496
-0.000215574
-0.00133207
-0.000642195
0.000534297
0.00161952
0.00238543
0.00268086
0.00277835
0.00221159
0.00846499
0.00841085
0.00833388
0.00821373
0.00788934
0.00732114
0.00654265
0.00522879
0.00452651
0.00250711
0.00177293
0.000363952
-0.000457944
0.000443716
0.00141686
0.00253805
0.00363966
0.00415965
0.00433008
0.00374827
0.00569602
0.00564613
0.00558477
0.00554236
0.00537279
0.00508674
0.00457147
0.00362835
0.00336379
0.00202745
0.00195366
0.000888058
0.000443755
0.00102952
0.0018802
0.00297392
0.00406859
0.00473326
0.00490939
0.0042355
0.00329466
0.00324783
0.00321671
0.00320435
0.00309075
0.00290591
0.00261012
0.00205861
0.00207535
0.00120211
0.00158689
0.00118697
0.00115235
0.00147109
0.00170292
0.00246285
0.00350722
0.0041418
0.00444469
0.00389534
0.00127955
0.00124336
0.00121853
0.00116263
0.00102972
0.000966751
0.000932249
0.000639305
0.000835678
0.000322128
0.000871941
0.00106283
0.0010594
0.00130965
0.00063842
0.000128588
-0.000206625
-0.000597272
-0.000180717
-0.000240075
-1.07712
-0.235203
0.0349134
0.311866
0.494425
0.651456
0.779238
0.9094
1.05185
1.13333
-0.0948554
0.312842
0.330132
0.518929
0.643826
0.755879
0.852434
0.938338
0.965951
0.923694
0.283662
0.498133
0.534002
0.670752
0.75732
0.837698
0.903964
0.953668
0.955888
0.969828
0.514163
0.657774
0.693081
0.795507
0.852505
0.910713
0.955723
0.988187
0.997316
1.02095
0.692918
0.794844
0.82461
0.892791
0.937237
0.978601
1.01086
1.0352
1.04503
1.07656
0.83675
0.905868
0.936252
0.979438
1.01564
1.04592
1.07031
1.09106
1.10524
1.13348
0.956274
1.00702
1.03266
1.06078
1.08857
1.11242
1.13243
1.15168
1.16659
1.19307
1.0603
1.0974
1.11855
1.13928
1.16015
1.17959
1.19701
1.21512
1.23
1.25365
1.15446
1.18363
1.20001
1.21531
1.23146
1.24754
1.26309
1.28
1.29361
1.31593
1.24284
1.26332
1.2782
1.29138
1.30495
1.31872
1.33222
1.3468
1.35835
1.37799
1.32834
1.34414
1.35796
1.36977
1.38167
1.3933
1.40443
1.41612
1.42379
1.4406
1.41358
1.42612
1.43983
1.45156
1.46219
1.47198
1.4808
1.48907
1.49263
1.50389
1.5023
1.51311
1.52658
1.53611
1.54368
1.55097
1.55817
1.56467
1.56574
1.57313
1.60069
1.60528
1.61348
1.61825
1.62165
1.62614
1.63213
1.63982
1.6437
1.65358
1.71399
1.7009
1.69361
1.68788
1.68516
1.68651
1.69288
1.70524
1.72005
1.74971
1.836
1.77997
1.74894
1.73175
1.72353
1.72348
1.73228
1.75188
1.78373
1.85298
)
;

boundaryField
{
    wall-4
    {
        type            zeroGradient;
    }
    pressure-outlet-7
    {
        type            fixedValue;
        value           uniform 0;
    }
    velocity-inlet-6
    {
        type            zeroGradient;
    }
    velocity-inlet-5
    {
        type            zeroGradient;
    }
    frontAndBackPlanes
    {
        type            empty;
    }
}


// ************************************************************************* //
