/*--------------------------------*- C++ -*----------------------------------*\
| =========                 |                                                 |
| \\      /  F ield         | OpenFOAM: The Open Source CFD Toolbox           |
|  \\    /   O peration     | Version:  v2012                                 |
|   \\  /    A nd           | Website:  www.openfoam.com                      |
|    \\/     M anipulation  |                                                 |
\*---------------------------------------------------------------------------*/
FoamFile
{
    version     2.0;
    format      ascii;
    class       volScalarField;
    location    "44";
    object      p;
}
// * * * * * * * * * * * * * * * * * * * * * * * * * * * * * * * * * * * * * //

dimensions      [0 2 -2 0 0 0 0];


internalField   nonuniform List<scalar> 
2200
(
0.780092
0.758591
0.742682
0.727008
0.71239
0.699861
0.68949
0.681373
0.675654
0.672665
0.673101
0.67688
0.683179
0.691715
0.702378
0.715127
0.729901
0.745787
0.76181
0.783314
0.712524
0.709264
0.706337
0.702216
0.696751
0.690273
0.683645
0.677673
0.673144
0.670707
0.671154
0.674416
0.679555
0.685979
0.692934
0.699664
0.705307
0.709423
0.7123
0.715645
0.672614
0.672832
0.67489
0.67623
0.676612
0.675748
0.673757
0.671061
0.668488
0.666959
0.667462
0.669862
0.67311
0.676308
0.678633
0.679641
0.679362
0.678314
0.676608
0.676365
0.650167
0.651618
0.654206
0.656644
0.659074
0.661078
0.662214
0.662419
0.662017
0.661689
0.662264
0.663582
0.664741
0.6651
0.66439
0.662708
0.66054
0.658328
0.65573
0.654319
0.635839
0.637811
0.640622
0.643453
0.646306
0.649123
0.651561
0.653396
0.654587
0.655346
0.656011
0.656416
0.656115
0.654961
0.65306
0.650656
0.648083
0.645357
0.642572
0.640643
0.628518
0.630116
0.632316
0.634842
0.637499
0.64015
0.642718
0.645112
0.647085
0.648533
0.64932
0.649271
0.648387
0.646816
0.644875
0.642689
0.640337
0.63798
0.635874
0.634298
0.625162
0.626183
0.627449
0.629305
0.631432
0.633572
0.635728
0.637969
0.640126
0.641893
0.642835
0.642761
0.64192
0.640659
0.639231
0.637646
0.635923
0.63433
0.633205
0.632187
0.622593
0.623264
0.623889
0.625177
0.626775
0.628438
0.630154
0.63202
0.634007
0.635873
0.637007
0.637212
0.636804
0.636125
0.635284
0.634291
0.633196
0.632247
0.631787
0.631111
0.619444
0.619894
0.620287
0.621267
0.622507
0.623861
0.625321
0.626934
0.628709
0.630567
0.631955
0.632622
0.632771
0.632615
0.632248
0.631702
0.631064
0.630489
0.63028
0.629819
0.615456
0.615749
0.616109
0.616982
0.618096
0.619356
0.620755
0.622296
0.623996
0.625874
0.627571
0.628728
0.629377
0.629643
0.629613
0.629383
0.629014
0.628633
0.628478
0.628159
0.610902
0.611103
0.61147
0.612294
0.613381
0.614679
0.616176
0.617857
0.619721
0.621804
0.623893
0.625532
0.62656
0.627101
0.627273
0.627215
0.627012
0.626756
0.626616
0.626389
0.605908
0.606054
0.60643
0.607239
0.608373
0.60979
0.611484
0.613448
0.615677
0.618201
0.620762
0.622803
0.624124
0.624864
0.625227
0.625306
0.625232
0.625099
0.624991
0.624814
0.600464
0.600569
0.600945
0.601772
0.603012
0.604619
0.606567
0.608859
0.611546
0.614634
0.617769
0.62025
0.621899
0.622903
0.623469
0.62375
0.62385
0.623846
0.623775
0.623624
0.59467
0.594729
0.595111
0.595965
0.597299
0.599059
0.601255
0.603924
0.607123
0.610869
0.614721
0.617811
0.619928
0.621314
0.622186
0.622704
0.622991
0.623104
0.623074
0.622944
0.588482
0.588517
0.588927
0.589814
0.591253
0.593185
0.595637
0.59871
0.602552
0.607135
0.611849
0.615643
0.618317
0.62018
0.621459
0.622296
0.622825
0.623077
0.623099
0.622978
0.581742
0.581697
0.582117
0.583094
0.584757
0.586928
0.589695
0.593234
0.597734
0.603237
0.609009
0.613755
0.617178
0.619681
0.621486
0.622704
0.623479
0.623866
0.623939
0.623814
0.574144
0.574124
0.574548
0.57565
0.577532
0.580032
0.583242
0.58734
0.592563
0.599094
0.606124
0.612162
0.616678
0.619939
0.622291
0.623912
0.624937
0.625477
0.625607
0.625481
0.565628
0.565641
0.56605
0.567225
0.569441
0.572375
0.576193
0.581095
0.587362
0.595227
0.603875
0.611349
0.616942
0.621058
0.624037
0.626077
0.627409
0.628105
0.628281
0.628152
0.555795
0.555758
0.556306
0.557758
0.5603
0.563796
0.568491
0.574599
0.582394
0.592079
0.602542
0.61151
0.618257
0.623157
0.626736
0.629318
0.630995
0.631854
0.632088
0.631953
0.54408
0.543993
0.54465
0.546504
0.549665
0.553994
0.559798
0.56739
0.577125
0.589099
0.601743
0.612395
0.62035
0.626359
0.630784
0.633894
0.635924
0.636953
0.637242
0.637093
0.530293
0.53016
0.530895
0.533081
0.536926
0.542275
0.549457
0.558806
0.570734
0.585333
0.600681
0.613568
0.62331
0.63058
0.63592
0.639776
0.642278
0.643517
0.643868
0.643689
0.513437
0.513337
0.514299
0.516925
0.521609
0.52826
0.537225
0.548841
0.563508
0.581249
0.599802
0.615339
0.627059
0.635868
0.642412
0.647124
0.650168
0.65164
0.652045
0.651825
0.492395
0.49223
0.493505
0.496941
0.503014
0.511675
0.523262
0.538092
0.556362
0.577896
0.599958
0.618305
0.632129
0.642514
0.650282
0.655989
0.659631
0.661321
0.661762
0.661481
0.464903
0.464909
0.466966
0.471829
0.480214
0.492034
0.507468
0.526603
0.549399
0.575468
0.601478
0.622785
0.638711
0.650722
0.659812
0.666385
0.67053
0.672397
0.672843
0.672507
0.428089
0.428335
0.431866
0.439638
0.451998
0.468745
0.489436
0.513961
0.542104
0.573351
0.603757
0.628291
0.646579
0.660378
0.670756
0.67826
0.682863
0.684838
0.685245
0.684839
0.378699
0.379121
0.386112
0.399084
0.417803
0.441595
0.469213
0.500318
0.534653
0.571667
0.606829
0.634772
0.655487
0.67116
0.68302
0.691484
0.696423
0.69833
0.698552
0.698159
0.313005
0.315837
0.331003
0.352271
0.379835
0.412359
0.447979
0.486492
0.527736
0.571121
0.61165
0.643646
0.66756
0.685743
0.699481
0.709396
0.714945
0.716828
0.716867
0.716682
0.238022
0.247622
0.272899
0.303944
0.341565
0.383111
0.42691
0.473203
0.52183
0.57222
0.618892
0.655752
0.683219
0.704281
0.720483
0.731969
0.738123
0.739761
0.739705
0.739739
0.170927
0.185827
0.217489
0.257378
0.304525
0.354965
0.406796
0.460868
0.51684
0.574032
0.626325
0.667643
0.698615
0.722297
0.740288
0.753074
0.759893
0.761999
0.762375
0.762407
0.119891
0.133236
0.170214
0.216197
0.270641
0.328512
0.387724
0.449005
0.511802
0.575388
0.633474
0.67893
0.712911
0.738875
0.758576
0.772843
0.78003
0.782556
0.782864
0.782935
0.0777253
0.090339
0.131
0.18087
0.240704
0.304449
0.370042
0.437814
0.507031
0.577011
0.640296
0.68942
0.72601
0.753828
0.774777
0.789743
0.797572
0.800445
0.800824
0.800929
0.041316
0.054144
0.0975478
0.150334
0.214459
0.282927
0.353931
0.427366
0.502194
0.577573
0.645397
0.69834
0.737235
0.766489
0.788568
0.803953
0.812174
0.815421
0.815904
0.816013
0.00953314
0.0225392
0.0679505
0.123296
0.191055
0.263501
0.339077
0.417311
0.497089
0.5776
0.650564
0.706296
0.746848
0.777417
0.799824
0.815601
0.824344
0.827779
0.828426
0.828508
-0.0190595
-0.00597467
0.0411034
0.0988705
0.169795
0.245602
0.325069
0.407516
0.491997
0.577461
0.654133
0.7125
0.755038
0.786275
0.809261
0.825362
0.83435
0.838062
0.838803
0.838868
-0.0451687
-0.0321003
0.0162087
0.0763322
0.149996
0.22875
0.311681
0.397925
0.486493
0.576026
0.656404
0.718116
0.76176
0.794005
0.817458
0.833627
0.843083
0.846841
0.847711
0.8477
-0.0696671
-0.0563144
-0.00709125
0.0551852
0.131238
0.212616
0.298585
0.388105
0.480242
0.573959
0.658739
0.722654
0.767968
0.801019
0.824901
0.84124
0.85047
0.854431
0.855191
0.855016
-0.0927552
-0.0791387
-0.0291574
0.035032
0.113176
0.196895
0.285504
0.377931
0.473525
0.571166
0.659463
0.726329
0.773839
0.807575
0.831737
0.847973
0.857167
0.860966
0.861812
0.861669
-0.114529
-0.100884
-0.0501961
0.0156184
0.0955677
0.181395
0.272405
0.367531
0.466292
0.567423
0.659754
0.730297
0.779415
0.813975
0.838239
0.854363
0.863345
0.867104
0.867851
0.867772
-0.135349
-0.121626
-0.0703538
-0.00318556
0.0783032
0.166038
0.259244
0.35681
0.458371
0.562998
0.659389
0.733076
0.784554
0.820496
0.844831
0.860671
0.869472
0.872953
0.873672
0.873565
-0.15568
-0.141483
-0.0897725
-0.0214607
0.061345
0.150766
0.245927
0.345675
0.449818
0.557798
0.658133
0.735377
0.789801
0.827081
0.85188
0.867352
0.87548
0.878675
0.879179
0.879081
-0.175653
-0.160682
-0.108583
-0.0392674
0.0446566
0.135541
0.232425
0.334167
0.440759
0.551849
0.655982
0.737077
0.794682
0.834247
0.859696
0.874505
0.881787
0.88409
0.884424
0.884288
-0.195178
-0.179423
-0.126904
-0.0566466
0.0282471
0.120387
0.218789
0.322383
0.431281
0.545139
0.652659
0.738019
0.799431
0.841833
0.868632
0.882804
0.888428
0.889265
0.889179
0.889063
-0.214117
-0.197761
-0.144761
-0.0736085
0.0121366
0.105367
0.205112
0.310369
0.421263
0.537486
0.648191
0.737853
0.803468
0.849795
0.879064
0.893019
0.89647
0.894095
0.893393
0.894228
-0.232426
-0.21564
-0.16213
-0.0901316
-0.003619
0.0905529
0.191442
0.2981
0.410675
0.529013
0.642727
0.736311
0.806695
0.857796
0.891077
0.906268
0.907653
0.901108
0.895802
0.894171
-0.250082
-0.232954
-0.178933
-0.106167
-0.0189761
0.075988
0.177809
0.285612
0.399638
0.519872
0.636074
0.733152
0.808504
0.865473
0.904425
0.923407
0.926814
0.914396
0.912632
0.916935
-0.267087
-0.249622
-0.195106
-0.121661
-0.0338799
0.0617269
0.164277
0.273007
0.38829
0.510133
0.62819
0.728396
0.80853
0.871685
0.918105
0.944197
0.952579
0.924442
0.882755
0.845507
-0.283384
-0.265647
-0.210669
-0.136674
-0.0484341
0.0476444
0.150719
0.260152
0.37641
0.499457
0.618992
0.7216
0.805634
0.875314
0.930744
0.96772
0.99066
0.976976
0.993798
1.0502
-0.298929
-0.281078
-0.225726
-0.151348
-0.0628125
0.0335357
0.136899
0.246729
0.363517
0.487296
0.607986
0.711952
0.798857
0.873494
0.93399
0.975081
0.991566
0.974228
0.935058
0.948356
-0.313698
-0.295895
-0.24023
-0.165629
-0.0769351
0.0195095
0.122952
0.232879
0.349773
0.473849
0.595124
0.699387
0.786475
0.861902
0.92239
0.962069
0.95436
0.903577
0.840945
0.829096
-0.327683
-0.310094
-0.254194
-0.179524
-0.0907983
0.00557327
0.108893
0.218633
0.335263
0.45912
0.580079
0.683419
0.768158
0.838635
0.892927
0.905222
0.872572
0.79799
0.724518
0.704266
-0.340921
-0.323669
-0.267623
-0.193049
-0.104428
-0.00829597
0.094711
0.204017
0.320041
0.443083
0.562872
0.664167
0.743036
0.801671
0.831251
0.820627
0.766239
0.665951
0.579403
0.558421
-0.353869
-0.337027
-0.280923
-0.206581
-0.118182
-0.0224166
0.0801304
0.188807
0.303922
0.425597
0.543348
0.640796
0.712335
0.755263
0.750874
0.717546
0.609586
0.488466
0.381926
0.355846
-0.367425
-0.350962
-0.294783
-0.220743
-0.132644
-0.0372836
0.0647323
0.172653
0.286606
0.406369
0.521169
0.61338
0.677795
0.696689
0.66329
0.577689
0.423055
0.271487
0.143261
0.116531
-0.382113
-0.365882
-0.309541
-0.235782
-0.147995
-0.0530264
0.0484254
0.155491
0.268065
0.385481
0.496384
0.582611
0.635993
0.627783
0.574955
0.42699
0.227809
0.0157396
-0.163881
-0.21146
-0.398041
-0.381881
-0.325238
-0.25171
-0.164216
-0.0696228
0.0312328
0.137345
0.24835
0.362965
0.468905
0.549664
0.588506
0.548879
0.461713
0.274156
0.0426497
-0.246445
-0.568341
-0.714916
-0.415289
-0.399049
-0.342015
-0.268632
-0.181359
-0.0871294
0.0130871
0.118146
0.227427
0.338976
0.439137
0.513663
0.535575
0.464951
0.328979
0.122777
-0.112405
-0.457644
-1.04684
-1.62007
-0.433931
-0.417483
-0.359916
-0.286583
-0.199447
-0.105548
-0.00597879
0.0979851
0.205481
0.313806
0.408088
0.475038
0.478625
0.390854
0.200239
-0.0349386
-0.23936
-0.476434
-1.03709
-2.56439
-0.45399
-0.437246
-0.379073
-0.305715
-0.218635
-0.125067
-0.0261956
0.0765824
0.182152
0.287152
0.375666
0.433338
0.417362
0.332566
0.106117
-0.133877
-0.283451
-0.322567
-0.315353
-0.70606
-0.475395
-0.458529
-0.399619
-0.326293
-0.239327
-0.146191
-0.0481799
0.0531924
0.156528
0.257635
0.3406
0.388163
0.356726
0.284187
0.0561194
-0.148843
-0.261193
-0.269984
-0.217398
-0.258282
-0.497969
-0.481178
-0.421589
-0.348413
-0.261594
-0.169024
-0.0720679
0.0276507
0.128371
0.225085
0.303353
0.341031
0.302867
0.231871
0.0236226
-0.139911
-0.222758
-0.230257
-0.277981
-0.283019
-0.521713
-0.504993
-0.444836
-0.372027
-0.285425
-0.193596
-0.0979055
-8.75292e-05
0.0977037
0.189856
0.263501
0.291991
0.255889
0.172143
-0.0040427
-0.130207
-0.201596
-0.17588
-0.197316
-0.19894
-0.546415
-0.529523
-0.469321
-0.397088
-0.310663
-0.219805
-0.125589
-0.0298971
0.0646707
0.152266
0.221258
0.239523
0.214572
0.10459
-0.0386084
-0.1249
-0.167361
-0.211176
-0.187041
-0.195186
-0.571771
-0.554485
-0.494838
-0.42334
-0.337085
-0.247504
-0.154947
-0.0615588
0.0294147
0.112741
0.17767
0.185963
0.172372
0.0435696
-0.0756019
-0.141268
-0.123654
-0.182921
-0.162183
-0.16696
-0.596954
-0.579435
-0.521278
-0.450471
-0.36435
-0.276412
-0.185643
-0.094709
-0.00780401
0.0715693
0.133682
0.134352
0.121302
-0.00906802
-0.103797
-0.15722
-0.141696
-0.161246
-0.165482
-0.164442
-0.62149
-0.604128
-0.547765
-0.47767
-0.392119
-0.306168
-0.217289
-0.128936
-0.0464333
0.0291718
0.0897911
0.0861435
0.065119
-0.0533725
-0.119609
-0.152065
-0.184196
-0.161603
-0.168076
-0.163662
-0.644461
-0.627803
-0.573322
-0.504187
-0.420005
-0.336176
-0.24928
-0.163623
-0.0855515
-0.0140798
0.0457038
0.0408492
0.00977289
-0.0913275
-0.137169
-0.128182
-0.193842
-0.151379
-0.163779
-0.156884
-0.665122
-0.649575
-0.596919
-0.529007
-0.44752
-0.365638
-0.280934
-0.19813
-0.124145
-0.0576477
0.00156709
-0.00215497
-0.0401824
-0.112067
-0.153437
-0.118483
-0.169441
-0.141646
-0.146737
-0.144639
-0.682008
-0.668048
-0.617847
-0.551689
-0.473577
-0.393529
-0.311342
-0.231537
-0.161096
-0.100649
-0.0428964
-0.0457357
-0.0817342
-0.117624
-0.148377
-0.136682
-0.143013
-0.143022
-0.14104
-0.13992
-0.694208
-0.682291
-0.635065
-0.57126
-0.496616
-0.418872
-0.339506
-0.262879
-0.195478
-0.141699
-0.0858759
-0.0892804
-0.128033
-0.122957
-0.11697
-0.125028
-0.122508
-0.145988
-0.14343
-0.147107
-0.70038
-0.690798
-0.64752
-0.586571
-0.515213
-0.440466
-0.364264
-0.290815
-0.226115
-0.178424
-0.124018
-0.130134
-0.185973
-0.159696
-0.0705586
-0.0828507
-0.0907595
-0.126262
-0.141808
-0.153133
-0.700298
-0.692815
-0.653619
-0.59609
-0.528318
-0.457007
-0.384174
-0.313868
-0.251915
-0.208119
-0.157204
-0.165099
-0.248983
-0.286839
-0.252418
-0.307118
-0.315539
-0.307791
-0.301964
-0.295806
-0.692983
-0.685718
-0.651566
-0.598514
-0.534798
-0.467315
-0.397953
-0.330303
-0.270153
-0.228062
-0.183193
-0.193597
-0.324241
-0.541057
-0.813786
-0.952878
-0.984229
-0.938898
-0.863553
-0.802659
-0.674023
-0.66607
-0.639052
-0.592526
-0.533933
-0.47049
-0.404508
-0.338602
-0.278089
-0.234234
-0.193722
-0.19156
-0.347517
-0.635752
-0.996259
-1.1464
-1.15465
-1.06973
-0.998151
-0.940015
-0.635652
-0.628281
-0.614782
-0.578163
-0.525427
-0.466223
-0.403313
-0.33762
-0.273157
-0.222191
-0.178315
-0.137195
-0.168578
-0.237123
-0.351919
-0.353736
-0.279472
-0.207329
-0.115007
-0.0580936
-0.590961
-0.58743
-0.584616
-0.556433
-0.511245
-0.456022
-0.394647
-0.327554
-0.255925
-0.187737
-0.125615
-0.0105452
0.144295
0.4027
0.627867
0.834051
1.00309
1.10603
1.15654
1.18616
-0.563459
-0.56418
-0.556707
-0.535783
-0.496095
-0.442778
-0.380437
-0.310645
-0.229674
-0.137229
-0.0398579
0.118274
0.37555
0.767964
1.15194
1.46721
1.68011
1.80326
1.85947
1.8781
-0.531287
-0.532542
-0.526114
-0.517045
-0.482673
-0.430419
-0.36493
-0.291203
-0.203899
-0.0982316
0.0166845
0.153679
0.424194
0.773722
1.11686
1.4095
1.62326
1.75146
1.81045
1.828
-0.502453
-0.501234
-0.500424
-0.497489
-0.470283
-0.420148
-0.352504
-0.274345
-0.184784
-0.0773086
0.0374499
0.135006
0.368219
0.666142
0.948994
1.19415
1.38894
1.50811
1.56237
1.57745
-0.490112
-0.487431
-0.489257
-0.484241
-0.462675
-0.411519
-0.341913
-0.261894
-0.174597
-0.0751383
0.0327316
0.0995206
0.280523
0.525879
0.751188
0.944247
1.10193
1.1999
1.24325
1.25432
-0.487154
-0.485547
-0.488729
-0.487424
-0.465041
-0.405774
-0.333211
-0.253243
-0.170461
-0.0845668
0.0164789
0.0675374
0.196895
0.392745
0.571308
0.717079
0.833239
0.908452
0.941776
0.950394
-0.479972
-0.480504
-0.486821
-0.486462
-0.460846
-0.395287
-0.322031
-0.244052
-0.166573
-0.09493
-0.00137662
0.0440204
0.128309
0.279047
0.418192
0.525916
0.609084
0.663893
0.687203
0.692262
-0.440943
-0.442806
-0.449056
-0.448296
-0.422795
-0.363796
-0.29866
-0.228017
-0.157848
-0.0991568
-0.0160159
0.0271593
0.0791687
0.192193
0.296959
0.375203
0.434727
0.474437
0.490406
0.495711
-0.35463
-0.357837
-0.362518
-0.362313
-0.342622
-0.30232
-0.254886
-0.200064
-0.140729
-0.0943567
-0.0254328
0.0139841
0.0462929
0.132828
0.209171
0.264407
0.307291
0.33859
0.349826
0.352867
-0.243354
-0.24577
-0.248236
-0.248824
-0.239081
-0.219056
-0.192509
-0.158249
-0.115588
-0.0812522
-0.0291207
0.00469645
0.0257035
0.0933117
0.147508
0.184659
0.21559
0.235481
0.244695
0.247521
-0.13827
-0.139657
-0.141577
-0.143928
-0.142743
-0.137495
-0.127552
-0.110931
-0.086201
-0.0631555
-0.0279467
-0.00207831
0.0136714
0.0662224
0.102782
0.128546
0.147945
0.159192
0.163972
0.164896
-0.0572112
-0.0581118
-0.0597927
-0.0636813
-0.0683229
-0.0720203
-0.0726372
-0.0680904
-0.0571825
-0.044507
-0.0233583
-0.00522177
0.0073594
0.044331
0.0690329
0.0858136
0.09678
0.101671
0.102453
0.101876
-0.00373345
-0.00445724
-0.00612056
-0.0111201
-0.0190974
-0.0272701
-0.0333183
-0.0355433
-0.0330797
-0.0286528
-0.0169539
-0.00500837
0.00542656
0.027114
0.0423955
0.0522015
0.0574659
0.0586481
0.0576232
0.0563807
0.0256113
0.0250602
0.0235758
0.0185121
0.00962402
-0.000220635
-0.00872449
-0.0145003
-0.0163648
-0.0168136
-0.0107741
-0.0039262
0.00295391
0.0147781
0.0228873
0.0272377
0.02876
0.0280603
0.0263575
0.0248832
0.0386222
0.0381933
0.0369351
0.0324772
0.0243314
0.0147425
0.00563522
-0.0018714
-0.00580593
-0.00836615
-0.00551743
-0.00242242
1.59415e-05
0.0056689
0.00887887
0.010032
0.00980759
0.00805339
0.00589503
0.00441644
0.0417223
0.0414146
0.0404337
0.0369817
0.0304418
0.0223722
0.0140217
0.0062414
0.00146627
-0.00234024
-0.00108278
-0.000978247
-0.00152075
0.00119154
0.00137304
0.000992263
-0.000602509
-0.00296971
-0.00497213
-0.00634198
0.0396384
0.0394002
0.0386344
0.0361159
0.0313438
0.0253296
0.0186092
0.0117573
0.00691955
0.00221704
0.00220993
0.00147397
-0.000367085
0.000729408
0.000301031
-0.00112342
-0.00308892
-0.00520066
-0.00691769
-0.00822707
0.0355798
0.0353961
0.0348386
0.0330654
0.0296745
0.0253435
0.0202191
0.014639
0.0104277
0.00547364
0.00463015
0.00397363
0.00266548
0.00308684
0.00260703
0.000806121
-0.00112339
-0.00283186
-0.00411902
-0.00525196
0.0310832
0.0309427
0.0305313
0.0292765
0.0268978
0.0236862
0.0198519
0.0155144
0.0121775
0.00768144
0.00686039
0.00656184
0.00592719
0.0061108
0.00546435
0.00414852
0.00262875
0.0016878
0.00116776
0.000153624
0.0268475
0.0267505
0.0264849
0.025607
0.0238489
0.0214136
0.0184407
0.01493
0.012483
0.00900354
0.00846729
0.00836258
0.0083183
0.00874785
0.00806713
0.00748683
0.00740481
0.00753169
0.00755325
0.00653258
0.0227645
0.0227031
0.022497
0.0219525
0.0207372
0.0189147
0.0167342
0.0139817
0.0121026
0.00926934
0.00898323
0.0088843
0.00836269
0.00950108
0.0101824
0.011105
0.0113734
0.0112123
0.0114745
0.0107072
0.0187462
0.0186951
0.0185396
0.0181912
0.0173457
0.0161062
0.0145073
0.0123905
0.0110579
0.00871101
0.00836138
0.0082317
0.00790938
0.00903111
0.0104991
0.0125556
0.0137693
0.0143329
0.0148033
0.0141182
0.0149577
0.0149031
0.0147775
0.0145701
0.0139995
0.0132555
0.012146
0.0105259
0.00953348
0.00732908
0.00696764
0.0052777
0.0052311
0.00825793
0.0110601
0.013752
0.0162612
0.0177311
0.0183486
0.0176285
0.0114317
0.0113679
0.0112688
0.0111481
0.0108204
0.0103813
0.00967685
0.00856969
0.00782544
0.00597392
0.00556855
0.00324956
0.00215456
0.00616432
0.0113835
0.0154642
0.0186922
0.0205755
0.0211967
0.0203153
0.00842489
0.0083334
0.00823785
0.00814694
0.00792142
0.00768927
0.00719225
0.00631015
0.00586774
0.00433925
0.00417797
0.00199764
0.00165009
0.00545247
0.0105981
0.0153856
0.019187
0.0209243
0.0214529
0.0207432
0.00583741
0.00576106
0.00572693
0.00564769
0.00544337
0.0052022
0.00494438
0.00432949
0.00424789
0.00298728
0.00340685
0.00090776
0.00104387
0.0046825
0.0086433
0.0130835
0.0173352
0.0197693
0.0202783
0.0192186
0.00336637
0.00326596
0.00322938
0.00316074
0.00310974
0.00305495
0.00273631
0.00222904
0.0027295
0.00188789
0.00242264
0.000818079
0.00117852
0.00252556
0.00542609
0.0090504
0.0126783
0.0152874
0.0163872
0.0151736
0.00130874
0.00122412
0.00113666
0.0010643
0.00109869
0.00115867
0.00127004
0.00114948
0.00145366
0.000809171
0.000794664
0.00102738
0.00233215
0.00169463
0.002036
0.00190782
0.0019288
0.00197988
0.00314307
0.00288992
-1.07672
-0.23171
0.0383869
0.316243
0.499948
0.658103
0.787422
0.919011
1.06239
1.14293
-0.0918517
0.3171
0.335357
0.524793
0.650846
0.763828
0.861289
0.947856
0.975679
0.933187
0.288577
0.503821
0.540651
0.67782
0.765165
0.84619
0.912914
0.962914
0.965272
0.979038
0.520293
0.664701
0.700362
0.803517
0.860643
0.919422
0.964615
0.997176
1.00637
1.02996
0.700004
0.80256
0.83238
0.901155
0.945581
0.987295
1.01966
1.04406
1.05396
1.08546
0.844479
0.913951
0.944387
0.987854
1.02415
1.05456
1.07905
1.09984
1.11411
1.14234
0.96438
1.0153
1.04097
1.06921
1.09712
1.12105
1.14116
1.16047
1.17545
1.2019
1.06859
1.10576
1.12696
1.14778
1.16876
1.18828
1.20577
1.22392
1.2388
1.26245
1.16287
1.1921
1.20853
1.22392
1.24017
1.25631
1.27189
1.28881
1.30239
1.3247
1.25141
1.27193
1.28686
1.30012
1.31374
1.32753
1.34101
1.35557
1.36711
1.38675
1.33708
1.35292
1.36677
1.37859
1.39048
1.40208
1.41319
1.42487
1.43254
1.44936
1.42243
1.43502
1.44871
1.46039
1.47097
1.48073
1.48955
1.49782
1.50138
1.51265
1.51117
1.52199
1.53543
1.54491
1.55245
1.55972
1.56692
1.57343
1.57449
1.58188
1.6095
1.61405
1.62224
1.62701
1.63041
1.63489
1.64089
1.64858
1.65245
1.66233
1.72271
1.70959
1.70231
1.6966
1.69389
1.69524
1.70163
1.714
1.7288
1.75846
1.84467
1.78866
1.75765
1.74046
1.73225
1.73222
1.74101
1.7606
1.79248
1.86171
)
;

boundaryField
{
    wall-4
    {
        type            zeroGradient;
    }
    pressure-outlet-7
    {
        type            fixedValue;
        value           uniform 0;
    }
    velocity-inlet-6
    {
        type            zeroGradient;
    }
    velocity-inlet-5
    {
        type            zeroGradient;
    }
    frontAndBackPlanes
    {
        type            empty;
    }
}


// ************************************************************************* //
