/*--------------------------------*- C++ -*----------------------------------*\
| =========                 |                                                 |
| \\      /  F ield         | OpenFOAM: The Open Source CFD Toolbox           |
|  \\    /   O peration     | Version:  v2012                                 |
|   \\  /    A nd           | Website:  www.openfoam.com                      |
|    \\/     M anipulation  |                                                 |
\*---------------------------------------------------------------------------*/
FoamFile
{
    version     2.0;
    format      ascii;
    class       surfaceScalarField;
    location    "44";
    object      phi;
}
// * * * * * * * * * * * * * * * * * * * * * * * * * * * * * * * * * * * * * //

dimensions      [0 3 -1 0 0 0 0];
oriented        oriented;


internalField   nonuniform List<scalar> 
4262
(
0.107137
0.470851
0.0955664
0.705156
0.0693734
0.858496
0.0473523
1.02078
0.0309881
1.21488
0.0198146
1.44939
0.0124466
1.73323
0.00729029
2.07619
0.00337415
2.48916
-0.000197875
2.98586
-0.00380394
2.9859
-0.00777419
2.48921
-0.0129315
2.07619
-0.0201411
1.73307
-0.0311069
1.44919
-0.0472283
1.21464
-0.069033
1.02057
-0.0952769
0.858547
-0.107088
0.705396
0.470901
0.112899
0.357952
0.135332
0.682724
0.12046
0.873368
0.0979393
1.04331
0.0746998
1.23812
0.0529688
1.47112
0.0345371
1.75166
0.0202493
2.09048
0.00888143
2.50053
-0.00135177
2.9961
-0.0115339
2.99608
-0.0226342
2.50031
-0.0365918
2.09015
-0.0547379
1.75122
-0.0764318
1.47088
-0.100004
1.23821
-0.122997
1.04356
-0.136777
0.872327
-0.113488
0.682107
0.357413
0.0920854
0.265866
0.125053
0.649756
0.12122
0.877202
0.104956
1.05957
0.0862997
1.25678
0.0671844
1.49024
0.0483398
1.77051
0.0304045
2.10842
0.0139997
2.51693
-0.0017935
3.01189
-0.0174126
3.0117
-0.0334808
2.51638
-0.0510345
2.1077
-0.0697056
1.76989
-0.0882991
1.48947
-0.105778
1.25569
-0.120249
1.05803
-0.125318
0.877396
-0.0923568
0.649145
0.265056
0.0640112
0.201855
0.104887
0.60888
0.106709
0.875379
0.0953721
1.07091
0.0814712
1.27068
0.0667056
1.505
0.0505394
1.78667
0.0333992
2.12556
0.0156927
2.53464
-0.0030459
3.03063
-0.0215079
3.03016
-0.0386169
2.53349
-0.0550884
2.12418
-0.070343
1.78515
-0.0842141
1.50334
-0.0978959
1.26937
-0.109595
1.06973
-0.106723
0.874524
-0.0647606
0.607183
0.200296
0.0375445
0.164311
0.080901
0.565524
0.091258
0.865022
0.084139
1.07803
0.0716196
1.2832
0.0598397
1.51678
0.046837
1.79968
0.0319245
2.14047
0.0151461
2.55142
-0.00385763
3.04963
-0.0225985
3.0489
-0.0387781
2.54967
-0.0528578
2.13826
-0.0651663
1.79745
-0.0765115
1.51469
-0.0884515
1.28131
-0.0947695
1.07605
-0.0830452
0.8628
-0.0383248
0.562462
0.161971
0.0195208
0.14479
0.0573495
0.527695
0.0727851
0.849587
0.0707205
1.08009
0.0620299
1.29189
0.0512899
1.52752
0.0401424
1.81082
0.0275423
2.15307
0.0124382
2.56652
-0.00524923
3.06732
-0.0225015
3.06615
-0.0367038
2.56387
-0.0482668
2.14982
-0.0582972
1.80748
-0.0680088
1.5244
-0.0756625
1.28896
-0.0766077
1.077
-0.0597077
0.8459
-0.0202959
0.52305
0.141675
0.01066
0.13413
0.0424897
0.495865
0.058766
0.83331
0.0591475
1.07971
0.0530038
1.29803
0.0436676
1.53686
0.0334664
1.82103
0.0222556
2.16428
0.00927754
2.5795
-0.00645921
3.08306
-0.0219183
3.08161
-0.0339484
2.5759
-0.0438209
2.15969
-0.0525948
1.81626
-0.0607382
1.53254
-0.0655364
1.29376
-0.0637473
1.07521
-0.0455508
0.827703
-0.0115968
0.489096
0.130078
0.00662263
0.127507
0.0331017
0.469386
0.0494015
0.817011
0.0509579
1.07815
0.0459765
1.30301
0.0376966
1.54514
0.0281965
1.83053
0.0174608
2.17502
0.00545456
2.59151
-0.00833699
3.09685
-0.0214725
3.09475
-0.0321098
2.58654
-0.0413609
2.16894
-0.0492025
1.8241
-0.0558271
1.53917
-0.059161
1.2971
-0.0557349
1.07178
-0.0368756
0.808844
-0.00777937
0.46
0.122299
0.00478844
0.122719
0.026857
0.447318
0.0429448
0.800923
0.0452117
1.07589
0.0406613
1.30756
0.0331383
1.55266
0.0242084
1.83946
0.0139321
2.18529
0.0024912
2.60295
-0.0101948
3.10953
-0.0221434
3.1067
-0.0321077
2.5965
-0.0403588
2.17719
-0.0473229
1.83106
-0.052982
1.54483
-0.055505
1.29962
-0.0507286
1.067
-0.0314168
0.789532
-0.00619357
0.434777
0.116105
0.00385158
0.118867
0.0219749
0.429194
0.037375
0.785523
0.0403988
1.07286
0.036287
1.31167
0.0291074
1.55984
0.0204256
1.84814
0.0104372
2.19528
-0.000770006
2.61415
-0.0129142
3.12168
-0.0242229
3.11801
-0.0333557
2.60564
-0.0409557
2.18479
-0.0470877
1.8372
-0.0517042
1.54944
-0.0531084
1.30102
-0.0469556
1.06085
-0.0275185
0.770095
-0.00554791
0.412806
0.110557
0.00305624
0.115811
0.0175795
0.414671
0.0316293
0.771473
0.0348765
1.06961
0.0311868
1.31536
0.0245862
1.56644
0.0165101
1.85621
0.00687127
2.20492
-0.00416393
2.62519
-0.0160172
3.13353
-0.0267737
3.12876
-0.0353094
2.61417
-0.0419736
2.19146
-0.0472359
1.84246
-0.0509729
1.55318
-0.0513672
1.30142
-0.0439265
1.05341
-0.0245214
0.75069
-0.00519961
0.393485
0.105358
0.00241956
0.113392
0.0140716
0.403019
0.026937
0.758608
0.0302696
1.06628
0.0264884
1.31915
0.0197496
1.57318
0.0116795
1.86428
0.0024794
2.21412
-0.00783874
2.63551
-0.0193479
3.14504
-0.0297591
3.13917
-0.0375077
2.62192
-0.0431117
2.19706
-0.0472928
1.84664
-0.0501904
1.55608
-0.0496556
1.30088
-0.0412383
1.04499
-0.0221585
0.73161
-0.00494726
0.376273
0.100411
0.00173069
0.111661
0.0105082
0.394241
0.0214295
0.747686
0.0243243
1.06339
0.0205671
1.3229
0.0138971
1.57985
0.00586229
1.87232
-0.00317934
2.22316
-0.0134664
2.64579
-0.0245999
3.15617
-0.0338311
3.14841
-0.0400643
2.62816
-0.0446258
2.20162
-0.0483041
1.85032
-0.0503517
1.55813
-0.0491309
1.29966
-0.0396422
1.0355
-0.0205904
0.712558
-0.00480949
0.360492
0.0956011
0.000889749
0.110771
0.00715181
0.387979
0.0164106
0.738428
0.0187872
1.06101
0.0145926
1.3271
0.00760919
1.58684
-0.000472191
1.8804
-0.00942654
2.23211
-0.0189828
2.65535
-0.0292028
3.16639
-0.0378687
3.15707
-0.043433
2.63372
-0.046995
2.20519
-0.0498492
1.85317
-0.0510213
1.5593
-0.0490581
1.2977
-0.0383591
1.02481
-0.0193744
0.693574
-0.00470395
0.345822
0.0908972
9.3286e-05
0.110678
0.00389886
0.384174
0.0106573
0.731669
0.0121938
1.05947
0.00798141
1.33131
0.000870581
1.59395
-0.00762599
1.8889
-0.0168058
2.24129
-0.0268613
2.66541
-0.0372101
3.17674
-0.0448128
3.16467
-0.0488995
2.63781
-0.0514907
2.20778
-0.0531502
1.85483
-0.0529936
1.55914
-0.0494962
1.2942
-0.0376545
1.01296
-0.018601
0.67452
-0.00462822
0.331849
0.0862689
-0.000781242
0.111459
0.000448354
0.382944
0.00531077
0.726807
0.00591315
1.05887
0.00101653
1.33621
-0.00668477
1.60165
-0.0157179
1.89793
-0.0255847
2.25116
-0.0353965
2.67522
-0.0441678
3.18551
-0.050501
3.17101
-0.0541105
2.64142
-0.0559007
2.20957
-0.056779
1.85571
-0.0559198
1.55828
-0.0510448
1.28933
-0.0376725
0.999591
-0.0183584
0.655206
-0.00469489
0.318186
0.0815741
-0.00168108
0.11314
-0.00280314
0.384066
-0.001285
0.725289
-0.00248766
1.06007
-0.00798453
1.3417
-0.0159925
1.60966
-0.0255269
1.90746
-0.0358492
2.26148
-0.0463185
2.68569
-0.0555
3.1947
-0.0611302
3.17664
-0.0633494
2.64363
-0.0635516
2.20977
-0.0623993
1.85456
-0.0596298
1.55551
-0.053092
1.28279
-0.0385153
0.985014
-0.0187467
0.635438
-0.00494639
0.304385
0.0766277
-0.00301465
0.116155
-0.00651287
0.387565
-0.00833601
0.727112
-0.0111818
1.06292
-0.0177751
1.3483
-0.0268749
1.61876
-0.0371166
1.91771
-0.0480721
2.27244
-0.0585315
2.69615
-0.0666484
3.20281
-0.0704552
3.18044
-0.0711992
2.64438
-0.070063
2.20863
-0.0684935
1.85299
-0.064893
1.55191
-0.0564209
1.27432
-0.0399574
0.968551
-0.0193664
0.614847
-0.00520512
0.290224
0.0714225
-0.00443859
0.120593
-0.0110587
0.394185
-0.0163808
0.732434
-0.0223093
1.06885
-0.0301069
1.35609
-0.0400777
1.62873
-0.0512831
1.92891
-0.0629239
2.28408
-0.0741103
2.70733
-0.0830348
3.21174
-0.0868012
3.18421
-0.0860446
2.64362
-0.0827175
2.20531
-0.0778114
1.84808
-0.0714018
1.5455
-0.0608785
1.26379
-0.0424002
0.950072
-0.0205901
0.593036
-0.00564638
0.27528
0.0657762
-0.0058606
0.126454
-0.0161221
0.404446
-0.0255778
0.74189
-0.0338445
1.07712
-0.0437113
1.36596
-0.0560623
1.64108
-0.0689986
1.94185
-0.0818506
2.29693
-0.0930762
2.71856
-0.100171
3.21883
-0.100433
3.18447
-0.0967163
2.63991
-0.0917351
2.20032
-0.0867016
1.84305
-0.0793486
1.53815
-0.0662321
1.25068
-0.0451724
0.929013
-0.0219445
0.569809
-0.00606088
0.259397
0.0597153
-0.0083527
0.134807
-0.0237214
0.419815
-0.0390476
0.757216
-0.0511873
1.08926
-0.0625774
1.37735
-0.0760955
1.6546
-0.0906643
1.95642
-0.104869
2.31114
-0.116587
2.73028
-0.123286
3.22553
-0.122875
3.18406
-0.117912
2.63494
-0.110238
2.19265
-0.100671
1.83348
-0.0893576
1.52684
-0.0731407
1.23446
-0.049327
0.905199
-0.0241591
0.544641
-0.00668283
0.24192
0.0530325
-0.0108217
0.145628
-0.0309826
0.439976
-0.0518249
0.778058
-0.0682959
1.10573
-0.0831779
1.39223
-0.0999783
1.6714
-0.116752
1.97319
-0.132304
2.32669
-0.14418
2.74215
-0.149044
3.2304
-0.144685
3.1797
-0.135029
2.62529
-0.124273
2.18189
-0.113925
1.82313
-0.101441
1.51435
-0.0819876
1.21501
-0.0546888
0.8779
-0.0268686
0.516821
-0.00730559
0.222357
0.0457269
-0.0154885
0.161117
-0.0429023
0.467389
-0.070268
0.805424
-0.0919027
1.12736
-0.110288
1.41062
-0.12987
1.69098
-0.149222
1.99254
-0.166494
2.34396
-0.178742
2.7544
-0.182433
3.23409
-0.17611
3.17338
-0.164838
2.61402
-0.151699
2.16875
-0.136147
1.80758
-0.118033
1.49624
-0.0939487
1.19092
-0.0622871
0.846239
-0.0305914
0.485125
-0.00810868
0.199875
0.0376182
-0.0196258
0.180743
-0.0557692
0.503533
-0.0924494
0.842104
-0.120869
1.15578
-0.144773
1.43452
-0.169157
1.71536
-0.190949
2.01433
-0.208528
2.36154
-0.219067
2.76494
-0.219103
3.23412
-0.208152
3.16243
-0.191727
2.59759
-0.173671
2.1507
-0.156573
1.79048
-0.136678
1.47634
-0.108124
1.16237
-0.0710743
0.809188
-0.0343976
0.448448
-0.00878936
0.174266
0.0288288
-0.0327631
0.213506
-0.0818671
0.552637
-0.128279
0.888516
-0.163644
1.19115
-0.193555
1.46443
-0.221252
1.74306
-0.244241
2.03732
-0.261395
2.37869
-0.269674
2.77322
-0.265004
3.22945
-0.248276
3.1457
-0.227941
2.57726
-0.207677
2.13043
-0.185575
1.76838
-0.158787
1.44956
-0.123888
1.12747
-0.08066
0.76596
-0.0383597
0.406148
-0.00928346
0.14519
0.0195454
-0.0474228
0.260929
-0.120746
0.62596
-0.182609
0.950379
-0.225794
1.23433
-0.261118
1.49976
-0.290195
1.77214
-0.311336
2.05846
-0.324208
2.39156
-0.325686
2.7747
-0.313648
3.21741
-0.290946
3.123
-0.265271
2.55158
-0.23863
2.10379
-0.212466
1.74222
-0.182735
1.41983
-0.141527
1.08626
-0.0898944
0.714328
-0.0404582
0.356712
-0.00915273
0.113885
0.0103927
-0.033859
0.294788
-0.0963861
0.688487
-0.153258
1.00725
-0.199665
1.28074
-0.242017
1.54211
-0.278637
1.80876
-0.312436
2.09226
-0.341863
2.42099
-0.362995
2.79583
-0.369643
3.22406
-0.356257
3.10961
-0.33247
2.52779
-0.305531
2.07685
-0.271847
1.70853
-0.226897
1.37487
-0.167369
1.02674
-0.0976595
0.644618
-0.0388122
0.297864
-0.00853511
0.0836076
0.00185753
-0.0124634
0.307251
-0.0468087
0.722832
-0.0879641
1.04841
-0.126729
1.3195
-0.164623
1.58
-0.198034
1.84217
-0.228679
2.12291
-0.253795
2.44611
-0.26867
2.8107
-0.266848
3.22224
-0.249154
3.09192
-0.222501
2.50114
-0.189535
2.04389
-0.154788
1.67379
-0.117225
1.33731
-0.0743487
0.983859
-0.034025
0.604294
-0.00993092
0.27377
-0.00182183
0.0754985
3.57128e-05
0.000633907
0.306617
-0.0234473
0.746913
-0.0526284
1.07759
-0.0826605
1.34953
-0.113683
1.61102
-0.143901
1.87239
-0.171254
2.15026
-0.193149
2.468
-0.205869
2.82342
-0.205333
3.2217
-0.18579
3.07238
-0.155421
2.47077
-0.123531
2.012
-0.088836
1.63909
-0.0508036
1.29928
-0.014973
0.948029
0.00661231
0.582709
0.00841305
0.27197
0.00268811
0.0812235
0.00272382
0.00111132
0.305506
-0.0121376
0.760162
-0.0338811
1.09933
-0.0587466
1.3744
-0.0844069
1.63668
-0.109452
1.89743
-0.132723
2.17353
-0.151141
2.48642
-0.16063
2.83291
-0.154899
3.21597
-0.134411
3.05189
-0.108775
2.44514
-0.0772354
1.98046
-0.042175
1.60403
-0.0123955
1.2695
0.00948854
0.926145
0.0189313
0.573266
0.0142171
0.276684
0.0046356
0.090805
0.00735943
0.00422281
0.301283
-0.004648
0.769033
-0.0229164
1.1176
-0.043956
1.39544
-0.0659046
1.65863
-0.087623
1.91915
-0.107929
2.19384
-0.124371
2.50286
-0.133912
2.84245
-0.131282
3.21334
-0.114443
3.03505
-0.0877921
2.41848
-0.0567361
1.9494
-0.0275369
1.57483
0.00191191
1.24005
0.0221287
0.905928
0.0256096
0.569785
0.0166439
0.285649
0.00519683
0.102252
0.0125563
0.0053093
0.295974
-0.000662325
0.775005
-0.0169094
1.13385
-0.0357725
1.4143
-0.055241
1.6781
-0.0743864
1.9383
-0.0925869
2.21204
-0.107671
2.51795
-0.11567
2.85045
-0.111915
3.20959
-0.0962528
3.01939
-0.0747278
2.39696
-0.0480962
1.92277
-0.0178251
1.54456
0.00627078
1.21595
0.0219206
0.890278
0.0242536
0.567452
0.0151287
0.294774
0.00473495
0.112646
0.0172912
0.0039301
0.292044
-0.000326062
0.779261
-0.0138236
1.14734
-0.0309135
1.43139
-0.0486782
1.69587
-0.0664422
1.95606
-0.0834133
2.22901
-0.0975869
2.53212
-0.106107
2.85897
-0.10588
3.20936
-0.0922163
3.00572
-0.0678759
2.37262
-0.0429908
1.89789
-0.0199877
1.52156
0.00380734
1.19216
0.0180567
0.876029
0.0192086
0.566301
0.0119386
0.302044
0.00365857
0.120926
0.0209498
0.00269288
0.289351
-0.000837608
0.782791
-0.0131391
1.15965
-0.0287343
1.44699
-0.0454257
1.71256
-0.061974
1.97261
-0.0779769
2.24501
-0.091993
2.54614
-0.101339
2.86832
-0.100471
3.20849
-0.0866999
2.99195
-0.0690092
2.35493
-0.0468998
1.87578
-0.0212762
1.49593
-0.00185865
1.17274
0.00983099
0.864339
0.0128094
0.563322
0.00758902
0.307265
0.0023592
0.126156
0.023309
0.000180212
0.28917
-0.00328739
0.786259
-0.0140941
1.17045
-0.0279861
1.46088
-0.0435736
1.72815
-0.0595341
1.98857
-0.0754554
2.26093
-0.089907
2.56059
-0.100011
2.87842
-0.100794
3.20928
-0.0914251
2.98258
-0.0729133
2.33642
-0.0504533
1.85332
-0.0300948
1.47558
-0.0110512
1.1537
0.00146144
0.851826
0.00391763
0.560866
0.00287863
0.308304
0.00112789
0.127906
0.0244369
-0.000453933
0.289624
-0.00508864
0.790893
-0.0151618
1.18053
-0.0282124
1.47393
-0.0431568
1.74309
-0.0585901
2.004
-0.0742616
2.2766
-0.0887589
2.57509
-0.0993951
2.88906
-0.102799
3.21268
-0.0933924
2.97318
-0.0763726
2.3194
-0.0570601
1.834
-0.0360012
1.45452
-0.0200612
1.13776
-0.00927356
0.841039
-0.00294758
0.55454
-0.00203405
0.30739
-0.000500458
0.126373
0.0239364
-0.00206381
0.291688
-0.00733705
0.796167
-0.0167608
1.18995
-0.0288688
1.48604
-0.0429854
1.75721
-0.0580617
2.01908
-0.0738064
2.29235
-0.0891599
2.59044
-0.101951
2.90185
-0.107405
3.21814
-0.0988028
2.96457
-0.082559
2.30315
-0.0628228
1.81427
-0.0456324
1.43733
-0.0283447
1.12047
-0.0157952
0.828489
-0.00921762
0.547962
-0.00420715
0.30238
-0.0010913
0.123257
0.0228451
-0.00351942
0.295208
-0.00881207
0.801459
-0.0179482
1.19909
-0.0296682
1.49776
-0.0432814
1.77082
-0.0579662
2.03376
-0.0737746
2.30816
-0.0896202
2.60629
-0.102758
2.91499
-0.109109
3.22449
-0.104103
2.95957
-0.0889967
2.28805
-0.0717645
1.79703
-0.0517746
1.41734
-0.0360464
1.10474
-0.0234334
0.815876
-0.0135268
0.538056
-0.00695941
0.295812
-0.00188706
0.118185
0.020958
-0.00420846
0.299416
-0.0102207
0.807472
-0.0191952
1.20806
-0.0303472
1.50891
-0.0433703
1.78384
-0.0578102
2.0482
-0.0737596
2.32411
-0.0902433
2.62277
-0.105523
2.93027
-0.11575
3.23471
-0.112266
2.95608
-0.0984647
2.27425
-0.0774971
1.77607
-0.0593041
1.39914
-0.0417253
1.08716
-0.0277674
0.801918
-0.0176438
0.527932
-0.00784802
0.286016
-0.00208574
0.112422
0.0188723
-0.00434739
0.303763
-0.0108673
0.813992
-0.0198658
1.21706
-0.0308052
1.51985
-0.0435295
1.79657
-0.0576798
2.06235
-0.0736345
2.34006
-0.0906305
2.63976
-0.106699
2.94634
-0.117559
3.24557
-0.117145
2.95567
-0.105432
2.26253
-0.0877592
1.75839
-0.065169
1.37655
-0.0472641
1.06926
-0.0322156
0.78687
-0.0186835
0.5144
-0.00866197
0.275995
-0.00206806
0.105828
0.0168043
-0.00442405
0.308188
-0.0114826
0.82105
-0.0204204
1.226
-0.0309707
1.5304
-0.0432652
1.80886
-0.0571909
2.07628
-0.0732036
2.35607
-0.0907329
2.65729
-0.108538
2.96414
-0.12321
3.26024
-0.126112
2.95857
-0.114853
2.25127
-0.0931875
1.73673
-0.0720173
1.35538
-0.0500583
1.0473
-0.0328039
0.769615
-0.0197556
0.501352
-0.00795415
0.264194
-0.00169133
0.0995655
0.0151129
-0.00447725
0.312665
-0.0116535
0.828226
-0.0204489
1.23479
-0.0308205
1.54077
-0.0428895
1.82093
-0.0565657
2.08996
-0.072537
2.37204
-0.0904889
2.67525
-0.109068
2.98272
-0.124478
3.27565
-0.12971
2.96381
-0.120976
2.24254
-0.104472
1.72023
-0.0781389
1.32905
-0.0532203
1.02238
-0.0316429
0.748038
-0.0149097
0.484619
-0.00551152
0.254795
-0.000661683
0.0947157
0.0144512
-0.00455729
0.317222
-0.0118454
0.835514
-0.020424
1.24337
-0.0304171
1.55076
-0.0420846
1.8326
-0.0555439
2.10341
-0.0715206
2.38802
-0.0897826
2.69351
-0.109542
3.00248
-0.128184
3.2943
-0.137378
2.973
-0.131349
2.23651
-0.110866
1.69974
-0.085381
1.30356
-0.0538407
0.990841
-0.0267457
0.720943
-0.00816164
0.466034
-8.25697e-05
0.246716
-0.00188896
0.0965221
0.0125623
-0.00454393
0.321766
-0.0117006
0.842671
-0.0200097
1.25168
-0.0297553
1.56051
-0.0411744
1.84402
-0.0543797
2.11662
-0.0702083
2.40385
-0.0886336
2.71193
-0.108954
3.0228
-0.128594
3.31394
-0.139629
2.98403
-0.137116
2.234
-0.123306
1.68593
-0.0934399
1.2737
-0.056745
0.954146
-0.0171821
0.68138
0.0178348
0.431018
0.0328236
0.231727
0.0242964
0.105049
0.0368587
-0.0044603
0.326226
-0.0115554
0.849766
-0.0196103
1.25973
-0.0289471
1.56985
-0.0399237
1.85499
-0.0528397
2.12954
-0.0685209
2.41953
-0.087045
2.73046
-0.108192
3.04395
-0.130185
3.33593
-0.144512
2.99836
-0.147127
2.23661
-0.131081
1.66989
-0.103394
1.24601
-0.0585201
0.909271
-0.0109507
0.633811
0.035865
0.384202
0.0438167
0.223776
0.0191444
0.129722
0.0560031
-0.00427838
0.330505
-0.0111556
0.856643
-0.0189009
1.26748
-0.0279247
1.57887
-0.0386309
1.8657
-0.0512332
2.14214
-0.0666629
2.43496
-0.0851808
2.74898
-0.106616
3.06538
-0.129395
3.35871
-0.14618
3.01515
-0.151566
2.242
-0.145157
1.66348
-0.117154
1.21801
-0.0717246
0.863842
0.00195963
0.560127
0.102738
0.283424
0.185844
0.140669
0.180053
0.135514
0.236056
-0.00414833
0.334653
-0.0109881
0.863483
-0.0186933
1.27519
-0.0276492
1.58783
-0.0384351
1.87649
-0.0514596
2.15516
-0.0677853
2.45129
-0.0878543
2.76904
-0.112027
3.08955
-0.139735
3.38642
-0.162712
3.03812
-0.174918
2.2542
-0.169005
1.65757
-0.146057
1.19506
-0.0959854
0.81377
-0.0426038
0.506745
-0.0827532
0.323573
-0.359621
0.417537
-0.938289
0.714181
0.898669
-1.6009
-0.00395978
0.338613
-0.0105765
0.8701
-0.0180554
1.28266
-0.0268872
1.59666
-0.0376311
1.88723
-0.0507619
2.16829
-0.0674574
2.46798
-0.0883881
2.78998
-0.114175
3.11534
-0.144808
3.41705
-0.172796
3.06611
-0.189969
2.27138
-0.202338
1.66993
-0.192586
1.18531
-0.172796
0.79398
-0.259315
0.593264
-0.692642
0.756901
-1.43419
1.15909
-2.04374
1.32373
1.21766
-2.36274
-0.0037583
0.342371
-0.0101666
0.876508
-0.0174442
1.28994
-0.0260392
1.60525
-0.0365774
1.89777
-0.0497596
2.18148
-0.0668127
2.48504
-0.0885686
2.81173
-0.116294
3.14307
-0.15106
3.45182
-0.18515
3.1002
-0.213095
2.29932
-0.227053
1.68389
-0.224403
1.18266
-0.311475
0.881051
-0.752914
1.0347
-1.53465
1.53864
-2.1052
1.72964
-2.34575
1.56428
1.33244
-2.46053
-0.00356235
0.345933
-0.00960619
0.882552
-0.0165702
1.29691
-0.0249762
1.61366
-0.0354097
1.9082
-0.0486291
2.19469
-0.0659339
2.50234
-0.0884482
2.83425
-0.117758
3.17238
-0.155602
3.48966
-0.196144
3.14074
-0.229039
2.33222
-0.262431
1.71728
-0.347706
1.26794
-0.691523
1.22487
-1.43095
1.77413
-2.02314
2.13083
-2.26383
1.97033
-2.37763
1.67808
1.39735
-2.44253
-0.00330183
0.349235
-0.00901228
0.888262
-0.0156939
1.30359
-0.0238034
1.62177
-0.034035
1.91843
-0.0472147
2.20787
-0.0647408
2.51987
-0.0879321
2.85744
-0.118963
3.20341
-0.16083
3.53153
-0.2079
3.18781
-0.254678
2.379
-0.302068
1.76467
-0.482551
1.44842
-1.08999
1.83231
-1.78211
2.46624
-2.10593
2.45465
-2.25518
2.11959
-2.33761
1.7605
1.46312
-2.40338
-0.00322921
0.352464
-0.00880676
0.89384
-0.0154177
1.3102
-0.0235961
1.62995
-0.0341261
1.92896
-0.0476128
2.22136
-0.0656266
2.53788
-0.0897425
2.88155
-0.122391
3.23606
-0.167473
3.57661
-0.221749
3.24209
-0.27171
2.42896
-0.364328
1.85729
-0.750892
1.83498
-1.48554
2.56695
-1.96186
2.94256
-2.1623
2.6551
-2.26887
2.22616
-2.34594
1.83757
1.52694
-2.40977
-0.00332404
0.355788
-0.00919264
0.899709
-0.0162092
1.31721
-0.0247773
1.63852
-0.0357313
1.93992
-0.0498341
2.23546
-0.0687291
2.55677
-0.0940683
2.90689
-0.128753
3.27074
-0.178047
3.6259
-0.235819
3.29986
-0.30124
2.49438
-0.491845
2.0479
-1.04429
2.38743
-1.67409
3.19675
-1.95253
3.22101
-2.10005
2.80262
-2.21421
2.34032
-2.30783
1.93119
1.58888
-2.36976
-0.00336858
0.359157
-0.00949939
0.905839
-0.0168613
1.32458
-0.0259406
1.6476
-0.0374965
1.95147
-0.0523019
2.25027
-0.0720696
2.57654
-0.0986765
2.9335
-0.135152
3.30722
-0.18752
3.67827
-0.252177
3.36452
-0.341918
2.58412
-0.622549
2.32853
-1.26031
3.02519
-1.75146
3.6879
-1.95915
3.4287
-2.09997
2.94343
-2.22413
2.46448
-2.33524
2.0423
1.64765
-2.39401
-0.00335639
0.362513
-0.0098105
0.912293
-0.017713
1.33248
-0.0272742
1.65716
-0.0392809
1.96348
-0.0547433
2.26573
-0.0754497
2.59725
-0.103308
2.96136
-0.141759
3.34567
-0.197331
3.73384
-0.265646
3.43283
-0.391496
2.70997
-0.774532
2.71156
-1.40604
3.6567
-1.76223
4.04409
-1.93608
3.60254
-2.03875
3.0461
-2.12803
2.55377
-2.1961
2.11036
1.64074
-2.18918
-0.0032773
0.365791
-0.00995628
0.918972
-0.0182199
1.34074
-0.028368
1.6673
-0.0411041
1.97622
-0.0573458
2.28197
-0.0789526
2.61886
-0.108087
2.99049
-0.148223
3.38581
-0.205611
3.79123
-0.285877
3.5131
-0.456658
2.88075
-0.90488
3.15979
-1.46001
4.21183
-1.72339
4.30747
-1.87665
3.75581
-1.97058
3.14004
-1.97304
2.55623
-1.90557
2.04289
1.60808
-1.87291
-0.00306297
0.368854
-0.0100337
0.925943
-0.0188697
1.34958
-0.0294483
1.67788
-0.0424942
1.98926
-0.0591179
2.2986
-0.0811669
2.6409
-0.110657
3.01998
-0.151248
3.4264
-0.207843
3.84782
-0.293757
3.59901
-0.498037
3.08503
-0.983586
3.64534
-1.4265
4.65474
-1.59416
4.47513
-1.66243
3.82407
-1.66769
3.14529
-1.52094
2.40948
-1.0214
1.54334
0.58668
-0.00263634
0.37149
-0.00980328
0.93311
-0.0189717
1.35875
-0.0302949
1.68921
-0.0445036
2.00347
-0.0625201
2.31661
-0.0863927
2.66478
-0.118555
3.05214
-0.162958
3.4708
-0.226257
3.91112
-0.330919
3.70367
-0.584396
3.33851
-1.11918
4.18012
-1.48022
5.01579
-1.58063
4.57554
-1.57904
3.82248
-1.47675
3.04301
-1.23775
2.17048
-0.63621
0.941799
-0.0495294
-0.00212058
0.373611
-0.00932351
0.940313
-0.0191288
1.36855
-0.0311377
1.70122
-0.0460718
2.0184
-0.0652845
2.33583
-0.0910113
2.6905
-0.125774
3.08691
-0.174573
3.5196
-0.243726
3.98028
-0.365536
3.82548
-0.677561
3.65053
-1.2348
4.73736
-1.49968
5.28066
-1.55967
4.63553
-1.53904
3.80185
-1.33723
2.8412
-0.788136
1.62139
-0.111194
0.264857
-0.160723
-0.00156488
0.375176
-0.00841794
0.947166
-0.0182483
1.37838
-0.0309364
1.7139
-0.0470162
2.03448
-0.0676192
2.35643
-0.095183
2.71807
-0.132718
3.12444
-0.18487
3.57175
-0.26264
4.05805
-0.411812
3.97466
-0.780641
4.01936
-1.31488
5.2716
-1.49396
5.45975
-1.52526
4.66683
-1.4383
3.71488
-1.10677
2.50968
-0.318037
0.832651
0.0264467
-0.0796265
-0.134277
-0.00061033
0.375786
-0.00677547
0.953331
-0.0171433
1.38875
-0.0304952
1.72726
-0.0470778
2.05107
-0.0687273
2.37808
-0.0980045
2.74735
-0.137814
3.16425
-0.19295
3.62689
-0.278743
4.14384
-0.451407
4.14732
-0.88318
4.45113
-1.35705
5.74546
-1.47612
5.57882
-1.47998
4.67069
-1.26129
3.49619
-0.695537
1.94393
-0.0640222
0.201136
0.0314638
-0.175112
-0.102813
0.000719332
0.375067
-0.00421729
0.958268
-0.0143093
1.39884
-0.0282129
1.74116
-0.045696
2.06855
-0.0686114
2.40099
-0.0994731
2.77821
-0.14151
3.20629
-0.199325
3.6847
-0.294187
4.2387
-0.496043
4.34918
-0.976946
4.93203
-1.35517
6.12368
-1.42064
5.64429
-1.37795
4.628
-1.08891
3.20715
-0.331358
1.18637
0.00186897
-0.132091
0.0139031
-0.187147
-0.0889099
0.00307968
0.371987
0.000132924
0.961215
-0.0107568
1.40973
-0.02518
1.75558
-0.0426406
2.08601
-0.0663127
2.42467
-0.0983345
2.81023
-0.141915
3.24987
-0.202499
3.74528
-0.30515
4.34135
-0.52781
4.57184
-1.03367
5.43789
-1.31394
6.40396
-1.35597
5.68632
-1.22288
4.49491
-0.785514
2.76979
-0.0781506
0.47901
0.0468691
-0.257111
0.0261583
-0.166436
-0.0627516
0.00512
0.366867
0.00370756
0.962627
-0.00529743
1.41874
-0.018972
1.76926
-0.0369089
2.10395
-0.061441
2.4492
-0.094377
2.84316
-0.139254
3.29475
-0.201737
3.80777
-0.311658
4.45127
-0.566164
4.82634
-1.05666
5.92839
-1.25044
6.59774
-1.26336
5.69923
-1.0498
4.28135
-0.469184
2.18917
-0.00870799
0.0185333
0.00299619
-0.268815
0.0113169
-0.174757
-0.0514347
0.00834163
0.358525
0.00958257
0.961386
0.00223597
1.42608
-0.010878
1.78237
-0.0285361
2.12161
-0.052998
2.47366
-0.0859108
2.87608
-0.130733
3.33957
-0.194693
3.87173
-0.310741
4.56732
-0.580287
5.09589
-1.02892
6.37702
-1.15411
6.72293
-1.14307
5.68819
-0.891708
4.02999
-0.272816
1.57028
-0.0636555
-0.190627
-0.0355481
-0.296922
-0.0110251
-0.19928
-0.0624598
0.0120309
0.346494
0.0174344
0.955983
0.0131361
1.43038
0.00250767
1.793
-0.0158319
2.13994
-0.0397299
2.49756
-0.0720215
2.90837
-0.116472
3.38402
-0.180131
3.93539
-0.298419
4.68561
-0.577863
5.37533
-0.963544
6.7627
-1.03471
6.7941
-0.971148
5.62463
-0.698926
3.75777
-0.108828
0.980181
-0.0342019
-0.265253
-0.0284691
-0.302655
-0.0108948
-0.216854
-0.0733546
0.0179212
0.328573
0.0290464
0.944857
0.0273972
1.43203
0.0172883
1.80311
0.000831737
2.1564
-0.0205918
2.51898
-0.0508895
2.93867
-0.0930731
3.4262
-0.154515
3.99683
-0.27224
4.80334
-0.533368
5.63646
-0.844675
7.07401
-0.882229
6.83165
-0.78881
5.53121
-0.464968
3.43393
0.0224789
0.492734
0.0405494
-0.283323
0.024498
-0.286604
0.00720351
-0.199559
-0.0661511
0.0244451
0.304128
0.0430849
0.926218
0.0469431
1.42817
0.0402469
1.8098
0.0276707
2.16898
0.00760389
2.53905
-0.0204714
2.96674
-0.0591806
3.46491
-0.116254
4.0539
-0.224908
4.91199
-0.451905
5.86346
-0.679365
7.30147
-0.724143
6.87643
-0.614856
5.42193
-0.284662
3.10374
0.0201442
0.187928
0.0298729
-0.293052
0.0359612
-0.292692
0.0195624
-0.18316
-0.0465887
0.0338129
0.270315
0.0627161
0.897314
0.0728633
1.41803
0.0701865
1.81248
0.0610517
2.17811
0.0443442
2.55576
0.0206153
2.99047
-0.0131621
3.49869
-0.0621796
4.10292
-0.152234
5.00204
-0.325112
6.03634
-0.474229
7.45058
-0.521895
6.92409
-0.444317
5.34435
-0.136754
2.79617
-0.0167567
0.0679302
-0.0107838
-0.299025
0.0230884
-0.326564
0.0413475
-0.201419
-0.00524118
0.043414
0.226901
0.0854677
0.855261
0.105738
1.39776
0.110237
1.80798
0.106271
2.18208
0.0941702
2.56786
0.0768361
3.0078
0.051299
3.52423
0.00865712
4.14556
-0.048767
5.05947
-0.161469
6.14904
-0.240397
7.52951
-0.265888
6.94958
-0.293943
5.3724
-0.192805
2.69503
-0.332428
0.207554
-0.303209
-0.328245
-0.163739
-0.466034
-0.00688212
-0.358276
-0.0121233
0.0549081
0.171993
0.114814
0.795354
0.149035
1.36354
0.161045
1.79597
0.162818
2.1803
0.156243
2.57443
0.146557
3.01749
0.131794
3.53899
0.111629
4.16572
0.0825526
5.08854
0.0734175
6.15817
0.0596734
7.54326
-0.0115086
7.02077
-0.177002
5.5379
-0.411881
2.92991
-0.723823
0.519495
-0.708357
-0.34371
-0.512053
-0.662337
-0.234301
-0.636029
-0.246424
0.0584739
0.113519
0.144351
0.709478
0.198378
1.30951
0.224332
1.77002
0.235931
2.16871
0.237336
2.57303
0.236546
3.01828
0.234211
3.54132
0.234065
4.16587
0.241703
5.08091
0.341727
6.05815
0.451152
7.43383
0.439531
7.03239
0.348513
5.62892
-0.0353822
3.31381
-0.533308
1.01742
-0.763534
-0.113484
-0.647118
-0.778753
-0.3609
-0.922247
-0.607324
0.0510293
0.0624897
0.17409
0.586417
0.261258
1.22234
0.302935
1.72834
0.323918
2.14772
0.334957
2.56199
0.343449
3.00979
0.357513
3.52726
0.385485
4.1379
0.440951
5.02544
0.677035
5.82207
1.0262
7.08467
1.32221
6.73638
1.53497
5.41615
1.20126
3.64752
0.559992
1.65869
0.0549597
0.391548
-0.202658
-0.521135
-0.212217
-0.912688
-0.819541
0.0365711
0.0259186
0.205216
0.417772
0.323592
1.10396
0.39499
1.65694
0.432825
2.10989
0.456619
2.53819
0.473183
2.99323
0.500023
3.50042
0.553193
4.08473
0.672452
4.90618
1.03452
5.46
1.6798
6.43938
2.07356
6.34262
2.33268
5.15703
2.19763
3.78257
1.64397
2.21235
1.13264
0.902883
0.552694
0.0588095
0.183001
-0.542996
-0.63654
0.031299
-0.00538045
0.226392
0.222679
0.408913
0.921444
0.50775
1.55811
0.558794
2.05884
0.595907
2.50108
0.6232
2.96593
0.662871
3.46075
0.740649
4.00695
0.896404
4.75043
1.31286
5.04355
2.08151
5.67073
2.47986
5.94428
2.68498
4.9519
2.62471
3.84284
2.14487
2.69219
1.54192
1.50583
0.975303
0.625429
0.429133
0.00317414
-0.207406
0.0282955
-0.0336759
0.181413
0.0695609
0.460635
0.642222
0.629937
1.3888
0.709323
1.97946
0.755662
2.45474
0.793999
2.92759
0.832931
3.42182
0.904456
3.93543
1.0473
4.60758
1.34366
4.74719
2.06346
4.95093
2.42149
5.58624
2.55741
4.81599
2.48857
3.91168
2.16112
3.01963
1.59916
2.06779
1.01474
1.20985
0.416961
0.600954
0.209555
0.0117049
-0.0453808
0.0964077
-0.0151419
0.403631
0.334999
0.628674
1.16376
0.736911
1.87122
0.769512
2.42214
0.779966
2.91714
0.769693
3.43209
0.764391
3.94073
0.798659
4.57331
0.87934
4.66651
1.18798
4.64228
1.41754
5.35669
1.41705
4.81648
1.34025
3.98848
1.17175
3.18813
0.874127
2.36542
0.545211
1.53876
0.228972
0.917193
0.438527
-0.00160895
-0.0437718
0.0398039
-0.0565548
0.243591
0.131213
0.470715
0.936637
0.580591
1.76134
0.619291
2.38344
0.636365
2.90007
0.633292
3.43516
0.621953
3.95207
0.622133
4.57313
0.658062
4.63058
0.838521
4.46182
1.05306
5.14215
1.05385
4.81569
0.984587
4.05774
0.857295
3.31542
0.651366
2.57135
0.396573
1.79355
0.156425
1.15734
0.594952
0.0148524
-0.0586242
0.0560881
-0.0977905
0.15226
0.0350403
0.334105
0.754792
0.435167
1.66028
0.474207
2.3444
0.488523
2.88575
0.492812
3.43087
0.486578
3.9583
0.481067
4.57864
0.488904
4.62275
0.598389
4.35234
0.752275
4.98827
0.754221
4.81374
0.685772
4.12619
0.582607
3.41859
0.437329
2.71662
0.258017
1.97287
0.0921242
1.32323
0.687076
0.0349532
-0.0935774
0.081883
-0.14472
0.11283
0.00409373
0.202513
0.665109
0.279381
1.58341
0.322871
2.30091
0.343527
2.86509
0.35799
3.41641
0.364621
3.95167
0.364495
4.57877
0.357889
4.62935
0.413638
4.29659
0.518533
4.88337
0.516399
4.81588
0.453816
4.18878
0.373261
3.49914
0.271374
2.81851
0.148863
2.09538
0.038425
1.43367
0.725501
0.0373067
-0.130884
0.0705724
-0.177986
0.0422869
0.0323792
0.0520832
0.655312
0.105195
1.5303
0.155202
2.2509
0.193759
2.82654
0.225231
3.38494