/*--------------------------------*- C++ -*----------------------------------*\
| =========                 |                                                 |
| \\      /  F ield         | OpenFOAM: The Open Source CFD Toolbox           |
|  \\    /   O peration     | Version:  v2012                                 |
|   \\  /    A nd           | Website:  www.openfoam.com                      |
|    \\/     M anipulation  |                                                 |
\*---------------------------------------------------------------------------*/
FoamFile
{
    version     2.0;
    format      ascii;
    class       volVectorField;
    location    "44";
    object      U;
}
// * * * * * * * * * * * * * * * * * * * * * * * * * * * * * * * * * * * * * //

dimensions      [0 1 -1 0 0 0 0];


internalField   nonuniform List<vector> 
2200
(
(0.878851 -0.0304134 0)
(1.0058 -0.0512803 0)
(1.0033 -0.0353944 0)
(1.00028 -0.024429 0)
(0.999872 -0.0166555 0)
(1.00005 -0.0107339 0)
(1.00005 -0.00686564 0)
(1.00004 -0.00423793 0)
(1.00003 -0.00227036 0)
(1.00017 -0.00072164 0)
(1.00005 0.000889814 0)
(1.00001 0.00247264 0)
(1.00003 0.00446182 0)
(1.00013 0.00706971 0)
(1.00013 0.0108334 0)
(0.999918 0.0166637 0)
(1.00028 0.0244044 0)
(1.00349 0.0349894 0)
(1.00595 0.0513606 0)
(0.879008 0.0303268 0)
(0.711998 -0.0327685 0)
(0.996636 -0.0630307 0)
(1.03331 -0.0561783 0)
(1.02491 -0.0464638 0)
(1.01587 -0.0361551 0)
(1.00961 -0.0264349 0)
(1.00589 -0.0181806 0)
(1.00372 -0.0114491 0)
(1.00253 -0.00606185 0)
(1.00198 -0.00151344 0)
(1.00199 0.00270098 0)
(1.00254 0.00719016 0)
(1.00369 0.0124237 0)
(1.00564 0.0189958 0)
(1.00933 0.0271649 0)
(1.01562 0.0368969 0)
(1.0247 0.0473012 0)
(1.03309 0.0576547 0)
(0.99666 0.0631579 0)
(0.711786 0.0329924 0)
(0.53547 -0.0239004 0)
(0.969866 -0.0569539 0)
(1.05641 -0.0547737 0)
(1.0522 -0.0487951 0)
(1.0362 -0.0404781 0)
(1.0244 -0.0322832 0)
(1.01585 -0.024063 0)
(1.01038 -0.016215 0)
(1.00721 -0.0089912 0)
(1.00571 -0.00240002 0)
(1.00563 0.00392005 0)
(1.00705 0.010403 0)
(1.0101 0.0174464 0)
(1.01556 0.0251253 0)
(1.02414 0.0333214 0)
(1.03603 0.0412804 0)
(1.05206 0.049359 0)
(1.05633 0.0536388 0)
(0.969221 0.0575705 0)
(0.534419 0.0239342 0)
(0.392209 -0.0136516 0)
(0.91174 -0.0464103 0)
(1.05741 -0.0469169 0)
(1.06956 -0.044364 0)
(1.05492 -0.03824 0)
(1.03936 -0.0315695 0)
(1.02752 -0.0247341 0)
(1.01905 -0.0175261 0)
(1.01369 -0.0100516 0)
(1.01105 -0.00248982 0)
(1.01095 0.00507597 0)
(1.01341 0.0124478 0)
(1.01857 0.0196186 0)
(1.02695 0.0265698 0)
(1.03856 0.0329064 0)
(1.05403 0.0393897 0)
(1.06839 0.0454613 0)
(1.05571 0.0481095 0)
(0.910113 0.0469139 0)
(0.390151 0.0137528 0)
(0.307501 -0.00452553 0)
(0.846493 -0.0324283 0)
(1.04921 -0.0400286 0)
(1.0793 -0.0383124 0)
(1.06807 -0.0336769 0)
(1.05163 -0.0281184 0)
(1.03826 -0.022744 0)
(1.02804 -0.0166706 0)
(1.021 -0.00980054 0)
(1.01715 -0.00227992 0)
(1.01687 0.00556705 0)
(1.02032 0.0128945 0)
(1.02719 0.0194804 0)
(1.03718 0.0251695 0)
(1.05046 0.0302745 0)
(1.06687 0.035579 0)
(1.07788 0.0399496 0)
(1.04731 0.0415636 0)
(0.843178 0.0329282 0)
(0.304109 0.00470936 0)
(0.264001 9.11151e-05 0)
(0.788674 -0.020118 0)
(1.0332 -0.0315488 0)
(1.08343 -0.0321176 0)
(1.0772 -0.0288668 0)
(1.06072 -0.0240476 0)
(1.04717 -0.0195937 0)
(1.03627 -0.0145127 0)
(1.02841 -0.00844441 0)
(1.02401 -0.00144872 0)
(1.02378 0.00593883 0)
(1.02766 0.0125972 0)
(1.03496 0.0182545 0)
(1.04552 0.0229026 0)
(1.05871 0.026821 0)
(1.07493 0.0311865 0)
(1.08054 0.0339516 0)
(1.02955 0.033095 0)
(0.783277 0.0206731 0)
(0.259338 9.48893e-05 0)
(0.239974 0.00106017 0)
(0.737889 -0.0123143 0)
(1.01343 -0.0250874 0)
(1.08383 -0.0269331 0)
(1.08275 -0.0246576 0)
(1.06763 -0.0205047 0)
(1.0542 -0.0165585 0)
(1.04339 -0.0121093 0)
(1.03527 -0.00682004 0)
(1.03037 -0.000554006 0)
(1.02977 0.00610449 0)
(1.03381 0.0121132 0)
(1.0414 0.0168469 0)
(1.05176 0.0207171 0)
(1.06498 0.0241252 0)
(1.0798 0.0277183 0)
(1.08036 0.0294025 0)
(1.00815 0.0269758 0)
(0.729831 0.0130515 0)
(0.233822 -0.000864085 0)
(0.225577 0.000952205 0)
(0.694838 -0.00808267 0)
(0.992469 -0.0208205 0)
(1.08185 -0.0231881 0)
(1.08669 -0.0214005 0)
(1.07316 -0.0178747 0)
(1.05966 -0.0140849 0)
(1.04911 -0.00988107 0)
(1.04118 -0.0049823 0)
(1.03641 0.00064734 0)
(1.03597 0.0065396 0)
(1.03964 0.0116744 0)
(1.04652 0.0159222 0)
(1.05635 0.019447 0)
(1.06954 0.0225261 0)
(1.08225 0.0253224 0)
(1.07613 0.0263833 0)
(0.984148 0.0231611 0)
(0.683243 0.00902471 0)
(0.217624 -0.000732326 0)
(0.215896 0.000609674 0)
(0.659307 -0.00573899 0)
(0.972243 -0.0178266 0)
(1.0792 -0.0205215 0)
(1.0898 -0.0189764 0)
(1.07789 -0.0158698 0)
(1.0645 -0.0122886 0)
(1.05405 -0.00819848 0)
(1.04623 -0.00348846 0)
(1.04121 0.00170918 0)
(1.04016 0.00705925 0)
(1.04354 0.011763 0)
(1.05046 0.0156491 0)
(1.06014 0.0188272 0)
(1.073 0.0216338 0)
(1.08419 0.0239231 0)
(1.07198 0.024509 0)
(0.960761 0.0206321 0)
(0.643703 0.00691016 0)
(0.205763 -0.00036527 0)
(0.208506 0.000274356 0)
(0.63017 -0.00428307 0)
(0.952292 -0.0151933 0)
(1.07563 -0.0182348 0)
(1.093 -0.0170298 0)
(1.08254 -0.01419 0)
(1.069 -0.0106407 0)
(1.05852 -0.00657629 0)
(1.05078 -0.00196927 0)
(1.04599 0.00305881 0)
(1.04506 0.00801749 0)
(1.04798 0.0124164 0)
(1.05389 0.015983 0)
(1.06322 0.0189896 0)
(1.07609 0.0214086 0)
(1.08499 0.02313 0)
(1.06474 0.0231483 0)
(0.936169 0.0186165 0)
(0.609422 0.00571891 0)
(0.195674 7.20883e-06 0)
(0.20268 8.65065e-05 0)
(0.607162 -0.00317041 0)
(0.935074 -0.0125886 0)
(1.0726 -0.0157286 0)
(1.09585 -0.0147188 0)
(1.08689 -0.0122162 0)
(1.07349 -0.00889014 0)
(1.06288 -0.00502894 0)
(1.05495 -0.000434734 0)
(1.04973 0.00451315 0)
(1.04809 0.00921876 0)
(1.05068 0.0133447 0)
(1.05705 0.0167003 0)
(1.06623 0.0192584 0)
(1.07856 0.0213871 0)
(1.08572 0.0226267 0)
(1.05895 0.0221195 0)
(0.913663 0.0169106 0)
(0.580311 0.00496753 0)
(0.186559 0.000276351 0)
(0.197913 7.77944e-06 0)
(0.588308 -0.00232256 0)
(0.918361 -0.0104371 0)
(1.06885 -0.0137136 0)
(1.09896 -0.0127773 0)
(1.0915 -0.0101358 0)
(1.07793 -0.00680257 0)
(1.06701 -0.00298808 0)
(1.05871 0.00125703 0)
(1.05316 0.00598477 0)
(1.05139 0.0105944 0)
(1.05364 0.0145468 0)
(1.05904 0.0174258 0)
(1.06825 0.0196172 0)
(1.08055 0.021221 0)
(1.08552 0.022144 0)
(1.04955 0.0211594 0)
(0.889494 0.0153986 0)
(0.553806 0.00448814 0)
(0.17774 0.000434001 0)
(0.194377 6.24944e-06 0)
(0.573776 -0.00156444 0)
(0.904524 -0.00809154 0)
(1.06632 -0.0111773 0)
(1.10221 -0.0101722 0)
(1.09604 -0.00765901 0)
(1.08242 -0.00419873 0)
(1.07115 -0.000581328 0)
(1.06235 0.00369075 0)
(1.05618 0.00833621 0)
(1.05383 0.0127378 0)
(1.05596 0.0159747 0)
(1.06194 0.0182953 0)
(1.07083 0.0200814 0)
(1.08252 0.0215966 0)
(1.08495 0.0220935 0)
(1.04234 0.0206219 0)
(0.868042 0.014363 0)
(0.530823 0.00422619 0)
(0.169493 0.000526312 0)
(0.192147 3.2595e-05 0)
(0.563275 -0.000783357 0)
(0.892438 -0.00599645 0)
(1.06348 -0.00882177 0)
(1.10579 -0.00770746 0)
(1.10124 -0.00488555 0)
(1.08742 -0.00149634 0)
(1.0757 0.00222605 0)
(1.06654 0.00620087 0)
(1.05997 0.0104693 0)
(1.05685 0.0145462 0)
(1.05805 0.0176711 0)
(1.0631 0.0196125 0)
(1.0723 0.0209147 0)
(1.08366 0.0220258 0)
(1.0836 0.0222857 0)
(1.03067 0.0202801 0)
(0.843739 0.013491 0)
(0.508329 0.00405625 0)
(0.161123 0.000576105 0)
(0.191284 9.09306e-05 0)
(0.555774 -0.000157089 0)
(0.882579 -0.00367434 0)
(1.06187 -0.00600791 0)
(1.10953 -0.00476416 0)
(1.10627 -0.00206993 0)
(1.09245 0.00162049 0)
(1.08023 0.00526032 0)
(1.07031 0.0094501 0)
(1.063 0.0139429 0)
(1.05954 0.0179545 0)
(1.06051 0.0203708 0)
(1.06563 0.021742 0)
(1.07452 0.0226452 0)
(1.08434 0.0231527 0)
(1.08169 0.022746 0)
(1.02125 0.0201861 0)
(0.822701 0.0128901 0)
(0.488719 0.00397773 0)
(0.153338 0.000590819 0)
(0.191887 1.27706e-05 0)
(0.552028 0.000878716 0)
(0.875859 -0.00154494 0)
(1.06036 -0.00339694 0)
(1.11316 -0.00187229 0)
(1.11155 0.00122913 0)
(1.09765 0.00489866 0)
(1.08504 0.00900575 0)
(1.07472 0.0132977 0)
(1.06663 0.0173483 0)
(1.06166 0.0205041 0)
(1.06132 0.0227134 0)
(1.06574 0.023859 0)
(1.07449 0.0243046 0)
(1.08363 0.0245608 0)
(1.07753 0.023823 0)
(1.00662 0.0204617 0)
(0.797693 0.0126001 0)
(0.467857 0.00403601 0)
(0.145017 0.000618726 0)
(0.193959 0.000242304 0)
(0.55249 0.001511 0)
(0.871456 0.000827332 0)
(1.06109 0.000109421 0)
(1.11779 0.00201946 0)
(1.11704 0.00502416 0)
(1.10318 0.00907744 0)
(1.09016 0.0133347 0)
(1.07908 0.0178719 0)
(1.06997 0.0222148 0)
(1.06485 0.0253597 0)
(1.06433 0.0269686 0)
(1.06788 0.0275099 0)
(1.07557 0.0273844 0)
(1.08276 0.0264641 0)
(1.07343 0.0250294 0)
(0.994583 0.02098 0)
(0.776395 0.0127698 0)
(0.449353 0.00424351 0)
(0.137056 0.000671625 0)
(0.197957 0.000653284 0)
(0.555411 0.00232537 0)
(0.872056 0.00356606 0)
(1.06295 0.00344364 0)
(1.12286 0.00596517 0)
(1.12323 0.00961544 0)
(1.10909 0.0138377 0)
(1.09563 0.0184888 0)
(1.08387 0.0232434 0)
(1.07371 0.0273548 0)
(1.06628 0.0297262 0)
(1.06327 0.0306553 0)
(1.06576 0.0306683 0)
(1.07339 0.0298476 0)
(1.08014 0.0292126 0)
(1.06664 0.0268825 0)
(0.977313 0.0219269 0)
(0.750088 0.0131059 0)
(0.428036 0.00446121 0)
(0.127935 0.000720331 0)
(0.204603 0.000860378 0)
(0.562914 0.00358168 0)
(0.876254 0.00611491 0)
(1.06753 0.00783468 0)
(1.12893 0.0111725 0)
(1.12985 0.0150012 0)
(1.11534 0.0197631 0)
(1.10075 0.0247173 0)
(1.08742 0.029728 0)
(1.07537 0.0342058 0)
(1.06725 0.0369757 0)
(1.06486 0.0375858 0)
(1.06677 0.0366441 0)
(1.07317 0.0349849 0)
(1.077 0.0323362 0)
(1.05908 0.0292107 0)
(0.961638 0.0234385 0)
(0.726959 0.0137787 0)
(0.408529 0.00484145 0)
(0.119012 0.000788564 0)
(0.212984 0.00101176 0)
(0.574399 0.00489268 0)
(0.884541 0.00936988 0)
(1.07416 0.0124037 0)
(1.13615 0.016468 0)
(1.13756 0.0215175 0)
(1.12195 0.0271128 0)
(1.10611 0.0326727 0)
(1.09123 0.0379576 0)
(1.07745 0.0421531 0)
(1.06686 0.0437489 0)
(1.06118 0.0427675 0)
(1.0616 0.0409437 0)
(1.0679 0.0383272 0)
(1.07199 0.0364191 0)
(1.04922 0.0321609 0)
(0.940272 0.02509 0)
(0.697677 0.0145771 0)
(0.385007 0.00523919 0)
(0.108491 0.000827011 0)
(0.225775 0.00139199 0)
(0.594021 0.00697383 0)
(0.900591 0.014165 0)
(1.08491 0.0193059 0)
(1.14528 0.0244118 0)
(1.1466 0.0297105 0)
(1.13003 0.0361212 0)
(1.11261 0.0423578 0)
(1.09568 0.0480808 0)
(1.07928 0.0522021 0)
(1.06667 0.0535549 0)
(1.06157 0.0524016 0)
(1.06207 0.0494924 0)
(1.06651 0.0458994 0)
(1.06536 0.0413129 0)
(1.03674 0.0357214 0)
(0.919492 0.0274453 0)
(0.671248 0.0159228 0)
(0.3628 0.00585735 0)
(0.0980548 0.000866656 0)
(0.24186 0.00197948 0)
(0.618998 0.00876056 0)
(0.922225 0.0186951 0)
(1.09937 0.0260135 0)
(1.15639 0.0323983 0)
(1.15754 0.03944 0)
(1.13921 0.0469207 0)
(1.12011 0.053937 0)
(1.10125 0.0600375 0)
(1.08282 0.0639775 0)
(1.06731 0.0639754 0)
(1.05762 0.0609227 0)
(1.05403 0.0561354 0)
(1.05745 0.0514043 0)
(1.05765 0.0470333 0)
(1.02273 0.0404055 0)
(0.892671 0.0303599 0)
(0.637213 0.0177637 0)
(0.334665 0.00652208 0)
(0.085469 0.000873916 0)
(0.264315 0.002836 0)
(0.653339 0.0125197 0)
(0.951152 0.0252971 0)
(1.11832 0.0353114 0)
(1.17033 0.0433611 0)
(1.16991 0.0516999 0)
(1.14947 0.0602971 0)
(1.12763 0.0683467 0)
(1.10553 0.0750314 0)
(1.08325 0.0788086 0)
(1.06464 0.0781278 0)
(1.05463 0.0741516 0)
(1.0527 0.0687351 0)
(1.05459 0.0627054 0)
(1.04709 0.0552446 0)
(1.00408 0.046402 0)
(0.865024 0.0346239 0)
(0.604632 0.0203341 0)
(0.306548 0.00737943 0)
(0.0728058 0.000877364 0)
(0.295979 0.00372265 0)
(0.699619 0.0156628 0)
(0.990083 0.0332859 0)
(1.14332 0.0466368 0)
(1.18709 0.0568013 0)
(1.1843 0.067752 0)
(1.16016 0.0779153 0)
(1.13496 0.086623 0)
(1.10939 0.0930107 0)
(1.084 0.095658 0)
(1.06251 0.0931811 0)
(1.04848 0.0872604 0)
(1.04129 0.0794637 0)
(1.04009 0.0712388 0)
(1.03416 0.0639524 0)
(0.983367 0.0537907 0)
(0.829376 0.0395233 0)
(0.560945 0.0232971 0)
(0.269743 0.00812706 0)
(0.0574148 0.000857159 0)
(0.332572 0.00716225 0)
(0.758109 0.024798 0)
(1.03795 0.0464189 0)
(1.17396 0.0637543 0)
(1.2084 0.0763436 0)
(1.20053 0.0897689 0)
(1.17181 0.10087 0)
(1.14232 0.109867 0)
(1.1122 0.115711 0)
(1.08184 0.116951 0)
(1.05617 0.112172 0)
(1.04082 0.103952 0)
(1.03534 0.0946173 0)
(1.03469 0.0855122 0)
(1.01831 0.0750328 0)
(0.956274 0.0616892 0)
(0.791467 0.0452785 0)
(0.51751 0.026397 0)
(0.233625 0.00882315 0)
(0.0426734 0.000724942 0)
(0.413198 0.0108448 0)
(0.845328 0.0359081 0)
(1.10257 0.0671024 0)
(1.2124 0.0891414 0)
(1.23334 0.104075 6.61512e-34)
(1.21877 0.119812 -2.96754e-34)
(1.18401 0.130994 0)
(1.14982 0.138738 0)
(1.11527 0.142365 0)
(1.08095 0.140235 0)
(1.05223 0.132524 0)
(1.03316 0.121577 0)
(1.02218 0.109994 0)
(1.01518 0.0975577 0)
(0.998963 0.0861034 0)
(0.926457 0.0712444 0)
(0.743069 0.0513236 0)
(0.458756 0.0291376 0)
(0.185184 0.00865048 0)
(0.0250029 0.000702825 0)
(0.48474 0.026075 4.96773e-20)
(0.946592 0.0596388 -3.75799e-20)
(1.17087 0.100824 0)
(1.25181 0.126586 2.88312e-20)
(1.26067 0.142143 -2.3376e-20)
(1.2362 0.159639 3.13099e-34)
(1.19458 0.168923 0)
(1.15481 0.174642 1.65318e-20)
(1.11435 0.175972 -5.42189e-20)
(1.07443 0.171708 1.10434e-20)
(1.04065 0.160524 0)
(1.01915 0.145931 -2.78903e-20)
(1.00926 0.131762 -3.33705e-20)
(1.00392 0.119099 5.83492e-20)
(0.971659 0.104113 -4.60916e-20)
(0.878177 0.083835 0)
(0.674764 0.0592167 -1.66655e-20)
(0.383619 0.0307923 0)
(0.132326 0.00894984 -9.17878e-20)
(0.0074298 0.000750163 1.08198e-19)
(0.520396 0.0537998 -6.50359e-21)
(1.01005 0.102563 1.14385e-19)
(1.22047 0.151175 -6.92626e-21)
(1.28494 0.174416 -7.24694e-20)
(1.28451 0.191531 -4.95445e-20)
(1.25093 0.206931 8.05598e-20)
(1.20323 0.213608 0)
(1.15801 0.216916 0)
(1.11269 0.215496 8.64332e-20)
(1.06796 0.207076 0)
(1.02948 0.191992 1.01059e-19)
(1.00335 0.176151 2.9925e-20)
(0.986537 0.160436 3.66737e-22)
(0.96853 0.143866 -6.37705e-20)
(0.935905 0.127484 0)
(0.833065 0.104866 0)
(0.616461 0.0715712 -2.72811e-19)
(0.332491 0.0367616 6.84338e-19)
(0.109174 0.0103534 -4.05662e-19)
(-0.00072879 0.000431349 -4.78007e-19)
(0.527645 0.0763433 -6.78908e-20)
(1.04643 0.159473 2.56428e-20)
(1.25647 0.211182 1.36486e-20)
(1.31132 0.232992 1.26721e-19)
(1.30332 0.248662 1.43026e-20)
(1.26215 0.260021 -2.10457e-19)
(1.20866 0.262934 7.14968e-20)
(1.15742 0.262984 0)
(1.10515 0.25827 -1.83116e-19)
(1.05305 0.24702 1.61986e-19)
(1.00949 0.231236 -2.72844e-19)
(0.979802 0.210717 1.27836e-19)
(0.963007 0.193398 -8.27841e-20)
(0.951009 0.177222 1.86427e-19)
(0.905898 0.157299 0)
(0.794625 0.126515 -6.82994e-20)
(0.584635 0.0862911 0)
(0.322573 0.0436596 3.77452e-19)
(0.109215 0.0147109 -8.94838e-19)
(0.000868912 -0.000170488 5.60526e-19)
(0.522383 0.108226 1.96687e-19)
(1.06641 0.216424 -8.55605e-20)
(1.27839 0.276744 -1.79423e-20)
(1.32865 0.297889 0)
(1.31537 0.311182 -9.34156e-20)
(1.26871 0.317136 1.15075e-19)
(1.21054 0.315256 -7.65429e-20)
(1.15456 0.31142 0)
(1.09826 0.302548 1.30187e-19)
(1.04403 0.287688 -1.13879e-19)
(0.996266 0.265608 2.36688e-19)
(0.962001 0.245361 0)
(0.938695 0.226556 -1.76005e-19)
(0.912316 0.206046 9.91671e-20)
(0.872515 0.184277 2.5048e-19)
(0.768009 0.153741 -2.20398e-19)
(0.569462 0.10807 3.51677e-19)
(0.324294 0.0586057 -7.78414e-19)
(0.121976 0.0216089 4.91529e-19)
(0.00850812 0.0013044 -6.149e-19)
(0.510294 0.132569 -7.29172e-20)
(1.0735 0.270315 5.24097e-20)
(1.28947 0.342327 -5.94736e-20)
(1.33812 0.363109 1.1614e-19)
(1.32121 0.374223 -1.08271e-19)
(1.27076 0.375455 3.66242e-20)
(1.20896 0.369168 3.64935e-21)
(1.14876 0.361173 -1.48539e-19)
(1.08764 0.348504 -1.36662e-19)
(1.02585 0.329928 -2.44776e-19)
(0.971832 0.306419 -5.08846e-19)
(0.935324 0.283343 -1.56584e-19)
(0.912297 0.261732 2.40621e-21)
(0.894058 0.241948 -3.39887e-19)
(0.845776 0.218921 -6.19216e-21)
(0.739764 0.179594 3.208e-19)
(0.554028 0.128746 -9.6948e-20)
(0.327425 0.0741536 -5.62617e-20)
(0.135045 0.0303841 0)
(0.0165771 0.00377085 1.30776e-18)
(0.49348 0.15332 0)
(1.06789 0.320236 -6.35217e-21)
(1.29201 0.405826 0)
(1.34083 0.42719 -1.27414e-20)
(1.32128 0.436983 1.05541e-19)
(1.26814 0.4337 -8.49622e-20)
(1.20351 0.423072 8.37195e-20)
(1.13992 0.411177 2.43653e-19)
(1.07526 0.39447 -7.59475e-20)
(1.01129 0.371431 1.21466e-19)
(0.956887 0.344711 2.73481e-19)
(0.916297 0.318983 3.41201e-19)
(0.885127 0.296817 -2.05288e-19)
(0.855034 0.271919 3.67674e-19)
(0.813855 0.246312 -2.91283e-19)
(0.719555 0.209548 0)
(0.549481 0.153416 -7.35581e-19)
(0.337043 0.0931985 9.90052e-19)
(0.15003 0.0415439 7.38953e-20)
(0.0251591 0.00719476 -1.38118e-18)
(0.479052 0.173627 -5.13638e-21)
(1.06 0.368575 -1.16995e-20)
(1.28978 0.466841 9.57181e-20)
(1.33887 0.489001 -1.03226e-19)
(1.31708 0.497486 8.6277e-20)
(1.2619 0.49039 -8.27821e-20)
(1.19519 0.476234 1.66396e-19)
(1.12923 0.460561 -7.36013e-20)
(1.06218 0.440095 -3.06647e-19)
(0.995272 0.414183 2.8676e-23)
(0.934596 0.384387 -2.9692e-19)
(0.889927 0.355045 -3.66498e-19)
(0.861116 0.32751 2.26383e-19)
(0.836979 0.306281 -1.32197e-19)
(0.789259 0.2789 3.16097e-19)
(0.694891 0.234128 0)
(0.536249 0.176718 -4.55801e-19)
(0.339612 0.110873 6.73138e-19)
(0.159831 0.0526401 1.27543e-18)
(0.0314871 0.0106415 -1.50041e-18)
(0.464598 0.191129 -3.00283e-20)
(1.04699 0.412872 8.60434e-21)
(1.28301 0.524299 -5.91864e-20)
(1.33286 0.548059 1.07074e-19)
(1.30929 0.555941 1.18135e-20)
(1.2527 0.545296 -1.62864e-19)
(1.18448 0.527611 -9.59766e-20)
(1.11657 0.508466 -9.3177e-20)
(1.04652 0.484318 -1.72454e-19)
(0.975188 0.454477 2.77862e-19)
(0.911955 0.419244 3.00564e-19)
(0.867366 0.387065 5.81607e-19)
(0.834438 0.361886 0)
(0.801453 0.333149 6.15884e-21)
(0.760269 0.303169 -8.66714e-19)
(0.677383 0.263711 2.0203e-19)
(0.530466 0.200723 9.83682e-19)
(0.343935 0.130247 -2.90184e-19)
(0.167766 0.0638183 6.04774e-19)
(0.0362271 0.014063 -5.04542e-20)
(0.454972 0.20957 5.90579e-21)
(1.03581 0.456154 3.23035e-20)
(1.27424 0.579488 -2.91519e-20)
(1.32421 0.604593 1.25175e-19)
(1.29913 0.611389 -1.80751e-19)
(1.24142 0.597573 1.62252e-19)
(1.17199 0.577165 9.93802e-20)
(1.10246 0.555113 2.79181e-19)
(1.0307 0.528155 3.47281e-19)
(0.958469 0.495322 -3.19477e-19)
(0.895872 0.457948 0)
(0.845888 0.423782 -2.19304e-19)
(0.809767 0.391854 2.51784e-19)
(0.784307 0.363931 3.17126e-19)
(0.737981 0.334314 -1.83297e-19)
(0.654057 0.285331 -4.47567e-19)
(0.515034 0.222812 -1.33698e-19)
(0.339783 0.146124 -1.52028e-21)
(0.169257 0.0730371 0)
(0.0384223 0.0164761 0)
(0.446567 0.225315 -5.89516e-20)
(1.02295 0.495885 0)
(1.26309 0.630893 -1.51434e-20)
(1.31326 0.658017 -6.78723e-21)
(1.28702 0.664259 2.03172e-19)
(1.22851 0.647646 -5.20077e-20)
(1.1581 0.624524 1.00785e-19)
(1.0873 0.599595 -1.89227e-19)
(1.01391 0.5694 2.62965e-19)
(0.938476 0.532443 -1.03989e-19)
(0.868754 0.490963 1.71651e-19)
(0.818248 0.451817 6.9473e-19)
(0.785694 0.42001 1.4052e-20)
(0.74862 0.388511 -3.30521e-19)
(0.709919 0.353629 6.11856e-19)
(0.634619 0.312298 4.22767e-21)
(0.50384 0.242649 1.43038e-19)
(0.333408 0.160733 -6.82575e-19)
(0.165223 0.0801623 7.01769e-19)
(0.0381121 0.0178238 -8.28652e-19)
(0.439827 0.243224 3.03278e-23)
(1.01142 0.534506 0)
(1.25128 0.680034 0)
(1.30105 0.708871 -7.80718e-21)
(1.27379 0.714038 -6.1599e-20)
(1.21459 0.694848 7.67186e-20)
(1.14363 0.669632 -1.89423e-19)
(1.0721 0.642388 0)
(0.997225 0.610149 -3.8749e-19)
(0.919901 0.571617 4.61933e-19)
(0.851548 0.52791 4.87645e-19)
(0.801589 0.484482 -2.54991e-19)
(0.758822 0.447394 -3.07773e-19)
(0.732739 0.415091 7.2127e-19)
(0.687883 0.382183 -2.17263e-19)
(0.611331 0.327994 -2.59558e-19)
(0.485581 0.259901 -1.5546e-19)
(0.324076 0.172014 -7.35702e-19)
(0.15971 0.0845178 1.06968e-19)
(0.0362432 0.0187428 8.93519e-19)
(0.435493 0.261611 -3.12534e-20)
(0.99997 0.570463 -3.92546e-20)
(1.23834 0.725591 2.36385e-20)
(1.2877 0.756579 -1.43879e-22)
(1.25968 0.761217 -5.86308e-20)
(1.20009 0.739761 1.27045e-19)
(1.12861 0.712414 0)
(1.05608 0.682982 1.13579e-19)
(0.979605 0.648145 -8.95583e-20)
(0.900603 0.605886 7.69184e-19)
(0.827217 0.556585 -1.11382e-19)
(0.770113 0.510386 1.26341e-19)
(0.735827 0.472349 0)
(0.697707 0.436421 -3.90332e-19)
(0.660047 0.3964 4.72287e-19)
(0.591324 0.350913 0)
(0.471554 0.273631 -3.35329e-19)
(0.311344 0.181496 9.85769e-19)
(0.15142 0.086873 1.16211e-19)
(0.0330573 0.0188808 -1.09951e-18)
(0.433088 0.27853 -8.18274e-20)
(0.990103 0.605273 1.05086e-19)
(1.22543 0.769022 0)
(1.274 0.801751 2.40832e-21)
(1.24527 0.805458 0)
(1.18523 0.78192 -1.61289e-19)
(1.1134 0.752921 0)
(1.04029 0.721689 0)
(0.962787 0.685273 -1.17545e-19)
(0.881428 0.641811 -7.3094e-19)
(0.806543 0.591476 -9.00425e-19)
(0.751279 0.541307 1.47374e-19)
(0.708183 0.496716 5.3098e-19)
(0.681091 0.45825 4.29341e-19)
(0.639007 0.421185 -1.51512e-18)
(0.567773 0.360796 -6.08722e-19)
(0.449997 0.285501 3.56266e-19)
(0.296665 0.186219 0)
(0.141991 0.0874591 9.99003e-19)
(0.0294939 0.018098 -1.18423e-18)
(0.431464 0.294203 9.99933e-20)
(0.980136 0.637471 -1.23985e-19)
(1.21213 0.809101 0)
(1.25986 0.843821 -1.09334e-20)
(1.23054 0.847198 4.93862e-21)
(1.17032 0.821932 0)
(1.09823 0.791277 5.78023e-20)
(1.02447 0.758341 7.79773e-20)
(0.945657 0.720146 -2.21677e-19)
(0.862571 0.673716 9.70445e-20)
(0.784369 0.618337 0)
(0.723284 0.565098 6.10161e-19)
(0.684266 0.519791 4.81244e-21)
(0.645678 0.476608 2.31534e-19)
(0.610329 0.429152 2.74998e-19)
(0.546091 0.378925 0)
(0.433692 0.292591 -5.83236e-19)
(0.280917 0.189628 1.14517e-18)
(0.132034 0.0864623 -1.21094e-18)
(0.0258698 0.0169588 2.54984e-18)
(0.430254 0.3091 0)
(0.971205 0.668694 0)
(1.19934 0.847219 -5.93607e-20)
(1.24592 0.883573 0)
(1.21604 0.886225 0)
(1.15555 0.859354 -1.35905e-19)
(1.08336 0.827451 5.91567e-20)
(1.00922 0.793178 1.75325e-20)
(0.929348 0.753756 -5.08622e-20)
(0.843569 0.706462 0)
(0.76235 0.65065 -1.3668e-19)
(0.701157 0.594287 -4.97612e-19)
(0.654611 0.540809 -5.98762e-19)
(0.627833 0.494039 -2.40493e-19)
(0.588197 0.450362 2.98078e-19)
(0.522155 0.381287 -7.02924e-19)
(0.410314 0.298107 1.25495e-18)
(0.264457 0.188532 2.85098e-21)
(0.122035 0.0842487 -1.16195e-18)
(0.0227305 0.0155728 -1.71979e-19)
(0.429121 0.323646 0)
(0.962371 0.697929 -1.02565e-19)
(1.18659 0.882368 7.3976e-20)
(1.23196 0.920429 0)
(1.20161 0.92292 0)
(1.14109 0.894805 2.73586e-19)
(1.06886 0.861665 0)
(0.994147 0.826061 0)
(0.912874 0.78536 -4.85374e-19)
(0.825593 0.736193 1.33345e-19)
(0.742149 0.676735 -1.21199e-18)
(0.675109 0.616099 0)
(0.631151 0.562754 -6.48796e-19)
(0.59007 0.510209 1.0702e-20)
(0.556943 0.451241 -9.57013e-19)
(0.498719 0.393031 3.78348e-19)
(0.394404 0.296653 1.85262e-21)
(0.250639 0.186035 -1.3221e-18)
(0.113945 0.0809051 6.26743e-19)
(0.0195961 0.0139509 1.84001e-19)
(0.428135 0.337842 0)
(0.954514 0.726299 -1.45855e-19)
(1.17453 0.915917 7.828e-20)
(1.21852 0.955317 9.31659e-20)
(1.18769 0.957171 -1.62234e-20)
(1.12703 0.927825 2.76113e-20)
(1.05479 0.893803 -3.65756e-20)
(0.979705 0.857262 4.6979e-19)
(0.897428 0.81565 5.19213e-19)
(0.807644 0.765799 1.01676e-18)
(0.720493 0.706467 1.00705e-18)
(0.651426 0.644112 1.76684e-19)
(0.598448 0.58287 9.33442e-19)
(0.569872 0.524375 5.75768e-19)
(0.532024 0.468582 6.87074e-19)
(0.473462 0.385026 -4.14422e-19)
(0.370967 0.292219 -4.8305e-19)
(0.238233 0.175254 5.66107e-19)
(0.109644 0.0799269 -3.3591e-19)
(0.0217574 0.0189325 5.95475e-19)
(0.427207 0.351631 2.07644e-19)
(0.946865 0.752813 2.2805e-19)
(1.16262 0.946851 4.61788e-20)
(1.20527 0.987553 1.62794e-20)
(1.17404 0.989296 1.89888e-20)
(1.11343 0.959066 -7.60893e-20)
(1.04123 0.924157 3.54004e-20)
(0.965723 0.886651 -2.04652e-20)
(0.882475 0.844248 -6.03407e-19)
(0.791656 0.793543 -1.10307e-18)
(0.702058 0.732229 6.99545e-20)
(0.627134 0.666511 0)
(0.576004 0.604963 0)
(0.528266 0.540578 -3.00002e-19)
(0.494868 0.462201 -1.12324e-18)
(0.444918 0.387399 8.92696e-19)
(0.359979 0.270987 5.28899e-19)
(0.244325 0.157321 0)
(0.122176 0.0549726 1.07135e-18)
(0.0153014 -0.00628709 -6.36534e-19)
(0.426413 0.36481 -1.10047e-19)
(0.939918 0.778275 9.758e-20)
(1.15137 0.976415 -1.12285e-19)
(1.19264 1.01814 -8.74374e-20)
(1.16101 1.01926 -9.2824e-21)
(1.10035 0.98806 -2.42279e-20)
(1.02828 0.952573 0)
(0.952633 0.914517 -5.89993e-19)
(0.868591 0.871558 7.4323e-20)
(0.775104 0.820421 0)
(0.681163 0.759057 0)
(0.603862 0.693663 1.1228e-19)
(0.540532 0.625694 1.50688e-19)
(0.504358 0.553354 -3.23694e-19)
(0.463479 0.478724 8.06457e-19)
(0.410107 0.364994 -9.72705e-19)
(0.327932 0.249622 -1.13138e-18)
(0.246385 0.135518 1.00122e-18)
(0.17424 0.0933662 -3.81904e-19)
(0.113159 0.0806751 2.22341e-19)
(0.425514 0.37723 1.39609e-19)
(0.933062 0.801934 0)
(1.14029 1.00355 0)
(1.18026 1.04625 -2.34191e-20)
(1.14835 1.04729 1.89588e-20)
(1.08785 1.01547 -2.08994e-20)
(1.01598 0.979395 1.55311e-19)
(0.940076 0.940692 6.04491e-19)
(0.855213 0.897267 1.09407e-18)
(0.76086 0.845861 -8.27379e-20)
(0.665601 0.784462 1.70669e-19)
(0.581797 0.717486 -1.00376e-18)
(0.51924 0.649633 -9.98049e-19)
(0.457972 0.573704 -1.73496e-19)
(0.41233 0.468496 0)
(0.366175 0.368438 -8.21021e-21)
(0.300601 0.184288 6.22164e-19)
(0.268224 0.034382 -1.0486e-18)
(0.229554 -0.0829124 7.97317e-19)
(0.0830962 -0.0968089 6.61772e-19)
(0.424612 0.389177 -3.09018e-19)
(0.926616 0.824536 -1.3995e-19)
(1.12976 1.02962 6.97745e-21)
(1.16845 1.0732 5.31322e-20)
(1.13621 1.0737 0)
(1.07574 1.04119 -8.394e-20)
(1.00406 1.00486 -2.22411e-19)
(0.928095 0.966008 -1.34522e-21)
(0.842461 0.922416 -5.73333e-19)
(0.745622 0.870971 -8.1136e-20)
(0.645879 0.810036 7.53608e-20)
(0.558603 0.74483 8.81616e-19)
(0.481327 0.673683 9.7418e-19)
(0.429782 0.588517 1.68703e-19)
(0.37433 0.496039 8.63163e-19)
(0.2954 0.3382 0)
(0.179003 0.170629 0)
(0.00825042 0.213423 7.23934e-19)
(-0.077221 0.629556 -3.05395e-20)
(0.00607466 1.53362 -8.88282e-19)
(0.423553 0.400493 1.71002e-19)
(0.920313 0.845751 3.90283e-19)
(1.11936 1.05372 -5.3125e-19)
(1.1568 1.0982 2.61926e-19)
(1.12427 1.09887 -4.92327e-21)
(1.06396 1.06616 -3.85793e-20)
(0.992462 1.0297 0)
(0.916197 0.990706 -5.04126e-19)
(0.829853 0.947305 0)
(0.73252 0.896562 1.14448e-18)
(0.631543 0.837085 -9.13048e-20)
(0.53765 0.772673 1.02378e-19)
(0.462034 0.704415 1.11226e-18)
(0.376121 0.625346 -3.65462e-19)
(0.282773 0.495207 -4.39779e-19)
(0.20017 0.395234 0)
(0.0911792 0.515174 0)
(0.0269932 1.32062 0)
(0.0730134 2.45866 -4.11402e-19)
(0.100919 2.90857 -2.52835e-19)
(0.422345 0.411231 0)
(0.914301 0.86585 0)
(1.1095 1.07696 1.9423e-19)
(1.14576 1.12237 -2.12178e-19)
(1.11289 1.12273 8.96066e-20)
(1.05257 1.08968 4.44303e-20)
(0.981239 1.05338 2.84789e-20)
(0.904975 1.01482 -2.21731e-20)
(0.818112 0.971982 8.05744e-20)
(0.718291 0.921934 -1.31342e-18)
(0.612154 0.863236 1.65704e-19)
(0.515564 0.802561 8.78267e-19)
(0.421199 0.736098 -1.1084e-18)
(0.346102 0.643929 -1.21324e-18)
(0.268225 0.557515 4.08859e-19)
(0.193547 0.688831 0)
(0.125055 1.54829 5.68681e-19)
(0.125453 2.69035 6.26959e-19)
(0.133572 3.08693 -7.0114e-19)
(0.124963 3.22171 7.55192e-19)
(0.420987 0.4216 0)
(0.908484 0.884684 3.48073e-19)
(1.09982 1.0983 -4.86182e-20)
(1.13494 1.14457 3.01756e-19)
(1.10178 1.14535 -9.40567e-20)
(1.04162 1.11246 0)
(0.970469 1.0764 0)
(0.893978 1.03812 0)
(0.806533 0.996069 4.55512e-19)
(0.706363 0.947535 6.07631e-20)
(0.599907 0.892038 0)
(0.496427 0.834097 -8.73771e-19)
(0.410617 0.772489 0)
(0.296237 0.695045 8.68541e-19)
(0.206887 0.763414 -5.84234e-19)
(0.157326 1.46027 -4.7055e-19)
(0.159514 2.67843 -1.1059e-18)
(0.180902 3.1267 -5.83727e-19)
(0.171725 3.26784 -7.95865e-19)
(0.157546 3.30819 6.08774e-19)
(0.419581 0.431104 -1.21999e-19)
(0.902875 0.902364 1.53864e-20)
(1.09069 1.11895 -5.43277e-20)
(1.12477 1.16622 -2.32493e-19)
(1.09125 1.16688 0)
(1.03109 1.13391 0)
(0.960086 1.09832 0)
(0.883685 1.06088 3.50734e-20)
(0.795914 1.0199 -5.7564e-19)
(0.693654 0.972779 0)
(0.582778 0.918806 0)
(0.480261 0.86503 0)
(0.367827 0.805447 0)
(0.305916 0.786419 6.33677e-19)
(0.272719 1.17 1.55845e-18)
(0.252147 2.37825 4.6249e-19)
(0.264814 3.0831 9.34442e-19)
(0.259259 3.28418 -7.16532e-19)
(0.21021 3.35014 2.65574e-19)
(0.177466 3.36278 0)
(0.418067 0.440325 1.25764e-19)
(0.897312 0.919435 -7.75357e-19)
(1.08148 1.13836 -2.07567e-19)
(1.11455 1.18649 -4.5321e-20)
(1.08078 1.18778 2.17985e-20)
(1.02082 1.15523 -6.57606e-20)
(0.950033 1.12014 -4.17509e-21)
(0.873477 1.08324 -3.95156e-19)
(0.785251 1.04343 0)
(0.68311 0.99854 -7.65816e-20)
(0.572893 0.949035 6.96656e-20)
(0.462531 0.898767 0)
(0.375238 0.855242 0)
(0.319961 0.971955 -7.92623e-19)
(0.276441 1.85433 9.74343e-20)
(0.272206 2.94196 -3.47031e-19)
(0.294013 3.28854 7.24574e-19)
(0.2667 3.38733 5.2716e-19)
(0.200742 3.41186 -7.17581e-19)
(0.175827 3.42126 3.56381e-19)
(0.416196 0.449722 2.4804e-19)
(0.891276 0.936749 7.57302e-19)
(1.072 1.15888 2.48863e-19)
(1.10418 1.20806 0)
(1.07011 1.20921 0)
(1.01023 1.17659 5.16274e-20)
(0.939694 1.142 7.72175e-20)
(0.863416 1.10609 3.5257e-19)
(0.775235 1.06755 2.27318e-20)
(0.671637 1.0245 9.8237e-19)
(0.558234 0.976729 -1.15455e-18)
(0.44812 0.928281 0)
(0.370028 0.925675 0)
(0.336014 1.33647 -5.39829e-19)
(0.337566 2.48344 -6.49228e-19)
(0.380515 3.19843 0)
(0.405088 3.37118 -7.32127e-19)
(0.335243 3.43409 4.90654e-20)
(0.265214 3.47868 3.45546e-19)
(0.242472 3.50402 -1.14343e-19)
(0.413966 0.459532 -4.72533e-19)
(0.884691 0.955154 -3.64011e-19)
(1.06148 1.17968 0)
(1.09273 1.22955 0)
(1.05855 1.23137 0)
(0.999052 1.19912 0)
(0.928964 1.16496 -9.0115e-20)
(0.852789 1.12942 3.11978e-19)
(0.764536 1.09204 0)
(0.661956 1.05152 -8.94668e-19)
(0.550626 1.00895 2.07165e-18)
(0.44118 0.973692 8.43875e-20)
(0.388478 1.05491 1.1159e-19)
(0.388468 1.74954 8.80553e-19)
(0.403746 2.899 -4.73196e-19)
(0.441194 3.32149 0)
(0.424219 3.4455 2.04627e-19)
(0.338439 3.53367 9.24527e-20)
(0.261956 3.59781 1.51095e-19)
(0.186653 3.57729 -1.21319e-20)
(0.411166 0.469751 2.25145e-19)
(0.877091 0.974158 -3.73323e-19)
(1.05026 1.20236 0)
(1.08073 1.25319 -6.61447e-20)
(1.04635 1.25458 2.25727e-19)
(0.987103 1.22196 0)
(0.917517 1.18806 0)
(0.842003 1.15343 -5.42368e-19)
(0.754393 1.11719 -5.7618e-20)
(0.65113 1.0785 8.77858e-19)
(0.535267 1.03712 -9.84363e-19)
(0.445448 1.01691 5.72581e-19)
(0.407918 1.23236 0)
(0.42534 2.18233 -4.6701e-19)
(0.468229 3.14504 3.06188e-19)
(0.531155 3.42546 1.91344e-19)
(0.523671 3.5224 0)
(0.460281 3.60464 -3.87933e-20)