/*--------------------------------*- C++ -*----------------------------------*\
| =========                 |                                                 |
| \\      /  F ield         | OpenFOAM: The Open Source CFD Toolbox           |
|  \\    /   O peration     | Version:  v2012                                 |
|   \\  /    A nd           | Website:  www.openfoam.com                      |
|    \\/     M anipulation  |                                                 |
\*---------------------------------------------------------------------------*/
FoamFile
{
    version     2.0;
    format      ascii;
    class       surfaceScalarField;
    location    "54";
    object      phi;
}
// * * * * * * * * * * * * * * * * * * * * * * * * * * * * * * * * * * * * * //

dimensions      [0 3 -1 0 0 0 0];
oriented        oriented;


internalField   nonuniform List<scalar> 
4262
(
0.107141
0.470848
0.0955754
0.705151
0.0694013
0.858477
0.0474232
1.02074
0.031064
1.21488
0.01984
1.44944
0.0124201
1.73328
0.00721275
2.07624
0.00329279
2.48916
-0.000408841
2.98599
-0.00407438
2.98596
-0.00788591
2.48906
-0.012914
2.07606
-0.0201
1.73305
-0.031107
1.44923
-0.0472001
1.21461
-0.068954
1.02052
-0.0952145
0.858564
-0.107073
0.705444
0.470915
0.112878
0.35797
0.135302
0.682727
0.1204
0.873379
0.0978064
1.04334
0.0745444
1.23814
0.0528469
1.47114
0.0344599
1.75167
0.0202457
2.09046
0.00892655
2.50048
-0.00122095
2.99614
-0.0113332
2.99607
-0.0225336
2.50026
-0.0366059
2.09014
-0.0548638
1.75131
-0.0765862
1.47095
-0.100248
1.23827
-0.123387
1.04366
-0.136959
0.872135
-0.113542
0.682028
0.357373
0.0920454
0.265924
0.124975
0.649797
0.121117
0.877237
0.104907
1.05955
0.0862611
1.25678
0.0671315
1.49027
0.048188
1.77061
0.0301279
2.10852
0.0135891
2.51702
-0.00228674
3.01202
-0.0179041
3.01169
-0.0339702
2.51632
-0.0515144
2.10768
-0.0699944
1.76979
-0.0883817
1.48934
-0.10567
1.25556
-0.119851
1.05784
-0.125207
0.877491
-0.0923258
0.649147
0.265047
0.0640527
0.201871
0.104946
0.608904
0.106731
0.875452
0.0953327
1.07094
0.0814097
1.27071
0.0666594
1.50502
0.0505391
1.78673
0.0334062
2.12565
0.0157433
2.53468
-0.00295622
3.03072
-0.021545
3.03028
-0.0388214
2.5336
-0.0552883
2.12415
-0.0705935
1.78509
-0.0844884
1.50323
-0.0981991
1.26927
-0.109953
1.06959
-0.107004
0.874543
-0.0648952
0.607038
0.200152
0.0374624
0.164409
0.0806793
0.565687
0.0909864
0.865145
0.083755
1.07818
0.0711492
1.28331
0.0593182
1.51685
0.0463465
1.79971
0.0314239
2.14057
0.0144439
2.55166
-0.00466845
3.04983
-0.023216
3.04882
-0.0391349
2.54952
-0.0530948
2.13811
-0.0652525
1.79725
-0.0765454
1.51452
-0.0884976
1.28122
-0.0948987
1.07599
-0.0830985
0.862742
-0.0383557
0.562295
0.161796
0.0194831
0.144926
0.057284
0.527886
0.0727604
0.849668
0.0707225
1.08021
0.0619496
1.29209
0.0510681
1.52773
0.039857
1.81092
0.0272348
2.1532
0.0122939
2.56661
-0.00525494
3.06738
-0.0226987
3.06627
-0.037095
2.56391
-0.0486186
2.14963
-0.0586084
1.80724
-0.0684799
1.5244
-0.0761874
1.28893
-0.0770513
1.07686
-0.0599492
0.84564
-0.0203582
0.522704
0.141438
0.0106523
0.134274
0.0424174
0.496121
0.0585378
0.833548
0.0588409
1.07991
0.0527542
1.29817
0.0434602
1.53703
0.0331289
1.82125
0.0217542
2.16457
0.00837664
2.57998
-0.00770855
3.08346
-0.0230797
3.08164
-0.0349988
2.57583
-0.0449265
2.15956
-0.053713
1.81603
-0.0615399
1.53222
-0.0660598
1.29345
-0.0641455
1.07494
-0.0458205
0.827315
-0.0116779
0.488562
0.12976
0.00659017
0.127684
0.0330398
0.469672
0.0493661
0.817222
0.0508998
1.07838
0.0458155
1.30326
0.0374851
1.54536
0.0278976
1.83084
0.0170385
2.17543
0.00504654
2.59197
-0.00866685
3.09718
-0.0221271
3.0951
-0.0330551
2.58676
-0.0422447
2.16875
-0.0500302
1.82381
-0.0566536
1.53885
-0.059901
1.2967
-0.0562667
1.07131
-0.037166
0.808215
-0.00785888
0.459255
0.121901
0.00475787
0.122926
0.026686
0.447743
0.0425698
0.801338
0.0447393
1.07621
0.0401339
1.30786
0.0324805
1.55301
0.0234052
1.83991
0.0129773
2.18586
0.00129544
2.60366
-0.0118674
3.11034
-0.0238332
3.10706
-0.0335158
2.59644
-0.0417125
2.17695
-0.0485035
1.8306
-0.0538975
1.54424
-0.0562456
1.29905
-0.0513546
1.06642
-0.031823
0.788683
-0.00631397
0.433746
0.115587
0.00379748
0.119128
0.0218559
0.429685
0.0371141
0.78608
0.0399067
1.07341
0.0355444
1.31222
0.0281963
1.56036
0.019431
1.84868
0.00937154
2.19592
-0.00182916
2.61486
-0.0137434
3.12225
-0.0250928
3.11841
-0.0344375
2.60579
-0.0419525
2.18446
-0.0481565
1.83681
-0.0530206
1.5491
-0.0542992
1.30032
-0.0479352
1.06005
-0.0280879
0.768836
-0.00570573
0.411363
0.109881
0.00306603
0.116062
0.0176149
0.415136
0.031658
0.772037
0.0347907
1.07028
0.0308092
1.31621
0.0237821
1.56739
0.0153344
1.85712
0.00554632
2.2057
-0.00565053
2.62605
-0.0180347
3.13464
-0.0289378
3.12932
-0.0370476
2.6139
-0.0436269
2.19104
-0.0488777
1.84206
-0.0526164
1.55284
-0.0528101
1.30052
-0.0451928
1.05244
-0.0253115
0.748954
-0.00543662
0.391489
0.104445
0.002422
0.11364
0.0139997
0.403558
0.0267269
0.75931
0.029963
1.06705
0.0260902
1.32008
0.0191652
1.57431
0.0107317
1.86556
0.00101116
2.21543
-0.00973997
2.63681
-0.0212941
3.14619
-0.0317838
3.13981
-0.0399181
2.62203
-0.0457202
2.19684
-0.0500396
1.84638
-0.0527908
1.55559
-0.0522008
1.29993
-0.0431424
1.04338
-0.0232272
0.729039
-0.00524409
0.373505
0.0992007
0.00172737
0.111913
0.0106347
0.394651
0.0215258
0.748419
0.0242536
1.06432
0.0203417
1.32399
0.0135088
1.58114
0.00517017
1.8739
-0.00438093
2.22498
-0.0152741
2.6477
-0.027151
3.15807
-0.0371054
3.14976
-0.043634
2.62856
-0.0483694
2.20158
-0.0519402
1.84995
-0.0537221
1.55738
-0.0523218
1.29853
-0.0420779
1.03313
-0.0219794
0.708941
-0.00519165
0.356718
0.0940091
0.00090259
0.11101
0.00729503
0.388259
0.0166476
0.739066
0.0190392
1.06193
0.0146941
1.32834
0.00737239
1.58847
-0.00118872
1.88246
-0.0108017
2.23459
-0.021232
2.65813
-0.0322466
3.16908
-0.0413726
3.15889
-0.0475743
2.63476
-0.0515432
2.20555
-0.0542811
1.85269
-0.0551879
1.55828
-0.052731
1.29607
-0.0413133
1.02172
-0.021016
0.688643
-0.00509667
0.340798
0.0889124
0.000178861
0.110831
0.00434597
0.384092
0.0112389
0.732173
0.0123782
1.06079
0.00769461
1.33302
0.000192957
1.59597
-0.00891531
1.89157
-0.0189744
2.24465
-0.0297913
2.66895
-0.0407315
3.18002
-0.049117
3.16727
-0.0536976
2.63934
-0.0564311
2.20828
-0.0584385
1.85469
-0.0585032
1.55835
-0.0546378
1.2922
-0.0415969
1.00867
-0.0207124
0.667759
-0.00513483
0.325221
0.0837776
-0.000761377
0.111593
0.000691253
0.382639
0.00565144
0.727213
0.00622241
1.06022
0.000799894
1.33844
-0.00770346
1.60447
-0.0173846
1.90125
-0.02766
2.25492
-0.0382381
2.67952
-0.048444
3.19023
-0.0557888
3.17462
-0.0599884
2.64354
-0.0621721
2.21046
-0.0632181
1.85574
-0.0623143
1.55744
-0.0570053
1.2869
-0.0423354
0.994004
-0.0208001
0.646224
-0.0052609
0.309682
0.0785167
-0.00159114
0.113184
-0.00235089
0.383399
-0.000252029
0.725114
-0.00181738
1.06178
-0.00798465
1.34461
-0.0167781
1.61326
-0.0271844
1.91165
-0.0386583
2.2664
-0.0503819
2.69125
-0.0607325
3.20058
-0.0674099
3.18129
-0.0704426
2.64657
-0.0711993
2.21122
-0.0707667
1.85531
-0.0681209
1.5548
-0.0607845
1.27956
-0.0440944
0.977314
-0.0214534
0.623583
-0.00549881
0.293727
0.0730179
-0.00296564
0.116149
-0.00609785
0.386531
-0.00755225
0.726568
-0.0103405
1.06457
-0.0175205
1.35179
-0.0276215
1.62337
-0.0389777
1.92301
-0.050904
2.27832
-0.0625382
2.70288
-0.0724933
3.21054
-0.0783223
3.18712
-0.0802331
2.64849
-0.0797193
2.21071
-0.0783722
1.85396
-0.0748516
1.55128
-0.0656178
1.27033
-0.0467202
0.958417
-0.0226137
0.599476
-0.00586597
0.276979
0.0671519
-0.00426146
0.120411
-0.0103409
0.39261
-0.0152269
0.731454
-0.0211504
1.07049
-0.0296546
1.36029
-0.0407405
1.63445
-0.0532729
1.93554
-0.0667663
2.29182
-0.0799062
2.71602
-0.0901565
3.22079
-0.0945005
3.19147
-0.094903
2.64889
-0.0936782
2.20948
-0.0900824
1.85036
-0.0839106
1.54511
-0.072047
1.25846
-0.0503465
0.936716
-0.0242514
0.573381
-0.00632127
0.259049
0.0608306
-0.00572794
0.126139
-0.0153811
0.402263
-0.0242196
0.740293
-0.032992
1.07927
-0.0436211
1.37092
-0.0567573
1.64759
-0.0709177
1.9497
-0.0851406
2.30604
-0.09804
2.72892
-0.107508
3.23025
-0.111135
3.19509
-0.110146
2.6479
-0.106046
2.20538
-0.101538
1.84586
-0.0944967
1.53806
-0.0798934
1.24386
-0.0548517
0.911674
-0.0263231
0.544852
-0.00686124
0.239587
0.0539694
-0.00800091
0.13414
-0.0221306
0.416393
-0.0363188
0.754481
-0.048521
1.09147
-0.0611793
1.38358
-0.0763602
1.66277
-0.0925276
1.96587
-0.108744
2.32226
-0.123145
2.74332
-0.133107
3.24022
-0.134509
3.1965
-0.130734
2.64412
-0.125383
2.20003
-0.117973
1.83845
-0.107369
1.52746
-0.0892508
1.22574
-0.060366
0.882789
-0.0287541
0.513241
-0.00744157
0.218275
0.0465278
-0.0104431
0.144583
-0.0293821
0.435332
-0.049636
0.774735
-0.0666198
1.10845
-0.0824289
1.39939
-0.100332
1.68067
-0.118962
1.9845
-0.136598
2.33989
-0.150784
2.75751
-0.158404
3.24784
-0.158083
3.19617
-0.152399
2.63844
-0.14409
2.19172
-0.134946
1.8293
-0.122457
1.51497
-0.100155
1.20344
-0.0665047
0.849139
-0.0313327
0.478068
-0.00799361
0.194936
0.0385342
-0.0151012
0.159684
-0.0414991
0.46173
-0.0685593
0.801795
-0.0906567
1.13055
-0.110427
1.41916
-0.132237
1.70248
-0.153612
2.00587
-0.172955
2.35924
-0.187303
2.77186
-0.193682
3.25421
-0.189693
3.19219
-0.180552
2.6293
-0.170042
2.18121
-0.157429
1.81669
-0.140082
1.49762
-0.112855
1.17621
-0.0737181
0.810002
-0.0341777
0.438528
-0.008516
0.169274
0.0300182
-0.0193866
0.179071
-0.0550463
0.49739
-0.092206
0.838955
-0.121849
1.16019
-0.146881
1.44419
-0.172276
1.72788
-0.195642
2.02924
-0.214836
2.37843
-0.227283
2.7843
-0.229919
3.25685
-0.222668
3.18494
-0.210275
2.61691
-0.195595
2.16653
-0.180211
1.80131
-0.159761
1.47717
-0.126283
1.14273
-0.0805987
0.764318
-0.0365814
0.394511
-0.00871623
0.141409
0.021302
-0.0325028
0.211574
-0.0816193
0.546506
-0.128995
0.886331
-0.165115
1.19631
-0.195671
1.47475
-0.225277
1.75748
-0.249832
2.0538
-0.268833
2.39743
-0.279407
2.79488
-0.277275
3.25472
-0.26337
3.17103
-0.246149
2.59968
-0.229258
2.14964
-0.209746
1.78179
-0.182254
1.44968
-0.141758
1.10224
-0.0887448
0.711305
-0.0390615
0.344827
-0.00871968
0.111067
0.0125823
-0.0469195
0.258493
-0.120337
0.619923
-0.183304
0.949298
-0.227927
1.24093
-0.264414
1.51124
-0.294697
1.78777
-0.316954
2.07605
-0.331143
2.41162
-0.3344
2.79813
-0.325536
3.24585
-0.307565
3.15306
-0.286525
2.57864
-0.263318
2.12643
-0.238898
1.75737
-0.206802
1.41759
-0.156911
1.05235
-0.0940723
0.648467
-0.0395201
0.290275
-0.00860987
0.0801568
0.00397244
-0.0338984
0.292391
-0.0972111
0.683236
-0.155617
1.0077
-0.202716
1.28803
-0.245197
1.55372
-0.283011
1.82558
-0.318074
2.11112
-0.34949
2.44304
-0.373822
2.82247
-0.385139
3.25717
-0.376764
3.14468
-0.357822
2.5597
-0.337204
2.10582
-0.307525
1.72769
-0.258118
1.36818
-0.186568
0.980796
-0.104471
0.566369
-0.0408295
0.226634
-0.00918289
0.0485102
-0.00521044
-0.0128572
0.305249
-0.0479062
0.718285
-0.0893575
1.04916
-0.12852
1.3272
-0.167355
1.59255
-0.201599
1.85982
-0.23315
2.14267
-0.259694
2.46958
-0.276477
2.83925
-0.276691
3.25739
-0.263562
3.13155
-0.244722
2.54086
-0.215989
2.07708
-0.181689
1.69339
-0.141526
1.32802
-0.0911311
0.930401
-0.0421266
0.517365
-0.014394
0.198902
-0.00341754
0.0375338
-0.00862799
7.96668e-05
0.305169
-0.0249135
0.743278
-0.0546071
1.07885
-0.0845985
1.35719
-0.115794
1.62375
-0.146068
1.8901
-0.173752
2.17035
-0.196156
2.49198
-0.20964
2.85273
-0.211535
3.25928
-0.197468
3.11749
-0.169908
2.5133
-0.140609
2.04778
-0.107972
1.66076
-0.0690654
1.28911
-0.030639
0.891974
-0.00539085
0.492117
0.00095429
0.192557
9.27527e-05
0.0383953
-0.00853524
0.00072853
0.30444
-0.0125955
0.756602
-0.0340727
1.10033
-0.058745
1.38186
-0.084588
1.64959
-0.109995
1.9155
-0.133183
2.19354
-0.151682
2.51048
-0.161831
2.86288
-0.158446
3.2559
-0.137927
3.09697
-0.111643
2.48702
-0.0824456
2.01859
-0.0495924
1.6279
-0.0202242
1.25974
0.00187977
0.86987
0.0116237
0.482373
0.00823315
0.195947
0.00226383
0.0443646
-0.0062714
0.00394188
0.300499
-0.0055498
0.766094
-0.0235103
1.11829
-0.0440519
1.4024
-0.0655435
1.67108
-0.0869407
1.9369
-0.107076
2.21367
-0.123399
2.52681
-0.132258
2.87174
-0.128279
3.25192
-0.10969
3.07838
-0.0837192
2.46105
-0.0526381
1.98751
-0.0247295
1.6
0.00280216
1.23221
0.021742
0.850931
0.0233272
0.480787
0.0135865
0.205688
0.00385036
0.0541007
-0.00242104
0.00517903
0.29532
-0.000888824
0.772162
-0.016835
1.13423
-0.0351295
1.42069
-0.0542909
1.69024
-0.0732734
1.95588
-0.0910117
2.23141
-0.105167
2.54096
-0.112016
2.87859
-0.106128
3.24603
-0.0878713
3.06012
-0.062915
2.43609
-0.0364384
1.96103
-0.0073955
1.57095
0.0138831
1.21093
0.0256266
0.839187
0.0252345
0.48118
0.0144983
0.216424
0.00421427
0.0643847
0.00179322
0.00399401
0.291326
-0.000416732
0.776573
-0.0138086
1.14762
-0.030516
1.4374
-0.0477066
1.70743
-0.064809
1.97299
-0.0809573
2.24756
-0.0939833
2.55399
-0.100872
2.88548
-0.0966221
3.24178
-0.0794006
3.0429
-0.0552786
2.41197
-0.02864
1.93439
-0.00665958
1.54897
0.0140004
1.19027
0.0258175
0.82737
0.0234239
0.483573
0.013608
0.22624
0.00405366
0.0739391
0.00584688
0.00248854
0.288837
-0.00122933
0.78029
-0.0132411
1.15964
-0.0281399
1.4523
-0.0442938
1.72359
-0.0603166
1.98901
-0.0755254
2.26277
-0.08831
2.56677
-0.0955006
2.89267
-0.0916046
3.23788
-0.0750871
3.02638
-0.0532014
2.39008
-0.0316035
1.91279
-0.00749678
1.52487
0.00983647
1.17294
0.0191506
0.818056
0.0189589
0.483765
0.0108597
0.234339
0.00328565
0.0815131
0.00913253
0.000288083
0.288549
-0.00345219
0.784031
-0.0140889
1.17027
-0.0275242
1.46574
-0.0425746
1.73864
-0.0578409
2.00428
-0.0727239
2.27765
-0.0855318
2.57958
-0.0929409
2.90008
-0.0907976
3.23574
-0.0763625
3.01195
-0.0558879
2.36961
-0.0342357
1.89114
-0.0161558
1.50679
0.00170405
1.15508
0.0130226
0.806737
0.0126495
0.484138
0.00757944
0.239409
0.0023791
0.0867134
0.0115116
-0.000603339
0.289152
-0.00564375
0.789071
-0.0154386
1.18007
-0.0279088
1.47821
-0.0422909
1.75302
-0.0570949
2.01908
-0.0718202
2.29238
-0.0850002
2.59276
-0.0937764
2.90886
-0.0938633
3.23583
-0.0810362
2.99912
-0.0630264
2.3516
-0.0446743
1.87279
-0.0232998
1.48541
-0.00750873
1.13929
0.00219977
0.797029
0.00558827
0.480749
0.00354873
0.241449
0.00142468
0.0888375
0.0129363
-0.00211183
0.291264
-0.00738316
0.794342
-0.0168811
1.18957
-0.0287527
1.49008
-0.0424168
1.76668
-0.0568341
2.0335
-0.071603
2.30715
-0.0853148
2.60647
-0.0951407
2.91868
-0.096555
3.23724
-0.0864503
2.98902
-0.070309
2.33546
-0.0504899
1.85297
-0.0344066
1.46933
-0.0174767
1.12236
-0.00497822
0.78453
-0.00112936
0.476901
-6.5817e-05
0.240385
0.000177491
0.0885942
0.0131138
-0.00352966
0.294794
-0.00921698
0.80003
-0.0183367
1.19869
-0.0297718
1.50151
-0.0430298
1.77994
-0.057131
2.0476
-0.0719661
2.32198
-0.0864313
2.62094
-0.0979851
2.93024
-0.102201
3.24146
-0.094859
2.98167
-0.0799934
2.32059
-0.0629986
1.83597
-0.0420808
1.44841
-0.0255621
1.10584
-0.0137635
0.772732
-0.00599036
0.469127
-0.00253295
0.236928
-0.000423343
0.0864846
0.0126905
-0.00415571
0.298949
-0.0102872
0.806161
-0.0194645
1.20786
-0.0305429
1.51259
-0.0433124
1.79271
-0.0572243
2.06151
-0.0722894
2.33705
-0.0873937
2.63604
-0.100139
2.94298
-0.10665
3.24797
-0.102514
2.97754
-0.0893161
2.30739
-0.0687277
1.81539
-0.0508873
1.43057
-0.0322886
1.08724
-0.0176858
0.758129
-0.0101185
0.46156
-0.00405394
0.230863
-0.000888268
0.0833189
0.0118022
-0.00440945
0.303359
-0.011266
0.813018
-0.0203447
1.21694
-0.031156
1.5234
-0.0437048
1.80526
-0.0574214
2.07523
-0.0725571
2.35218
-0.0882693
2.65175
-0.102745
2.95746
-0.112461
3.25768
-0.110407
2.97548
-0.0976948
2.29468
-0.0804382
1.79813
-0.0566885
1.40682
-0.0371343
1.06769
-0.0226335
0.743628
-0.0114369
0.450364
-0.00481983
0.224246
-0.0010399
0.079539
0.0107623
-0.00444334
0.307802
-0.0116079
0.820182
-0.0207721
1.22611
-0.0313544
1.53399
-0.0435411
1.81745
-0.0571044
2.08879
-0.0723927
2.36747
-0.0886901
2.66805
-0.10458
2.97335
-0.116803
3.26991
-0.118748
2.97743
-0.10789
2.28382
-0.0854298
1.77567
-0.0631333
1.38452
-0.0400955
1.04465
-0.0222981
0.725831
-0.0118326
0.439898
-0.00425443
0.216668
-0.000900509
0.0761851
0.00986177
-0.00456161
0.312364
-0.0120338
0.827655
-0.0209698
1.23504
-0.0313342
1.54435
-0.0433591
1.82947
-0.0567322
2.10216
-0.0720198
2.38276
-0.0888423
2.68487
-0.106088
2.99059
-0.120906
3.28473
-0.124999
2.98152
-0.115021
2.27385
-0.0973537
1.758
-0.068279
1.35545
-0.0413361
1.0177
-0.0215497
0.706044
-0.00737799
0.425726
-0.00134078
0.210631
0.000442294
0.074402
0.0103041
-0.00456298
0.316927
-0.0119762
0.835068
-0.0208289
1.24389
-0.03095
1.55447
-0.0426081
1.84113
-0.0557858
2.11534
-0.0711302
2.3981
-0.0883605
2.7021
-0.106723
3.00895
-0.123869
3.30187
-0.132385
2.99004
-0.125564
2.26703
-0.102614
1.73505
-0.0744844
1.32732
-0.041271
0.984491
-0.0144161
0.679189
0.000211399
0.411099
0.00377106
0.207071
-0.0012066
0.0793796
0.00909746
-0.00460164
0.321528
-0.0120415
0.842508
-0.020554
1.25241
-0.0303827
1.5643
-0.0418232
1.85257
-0.0547842
2.1283
-0.0700386
2.41336
-0.0875861
2.71965
-0.106899
3.02827
-0.125924
3.3209
-0.136635
3.00075
-0.132073
2.26246
-0.11553
1.71851
-0.0812767
1.29307
-0.0412864
0.944501
-0.00315824
0.641061
0.027346
0.380595
0.0384549
0.195962
0.0259181
0.0919165
0.0350156
-0.00447013
0.325999
-0.0116829
0.84972
-0.0200318
1.26076
-0.0295557
1.57382
-0.0405743
1.86359
-0.0532694
2.141
-0.0684451
2.42853
-0.0861577
2.73736
-0.106206
3.04832
-0.127144
3.34183
-0.141443
3.01505
-0.142079
2.2631
-0.121996
1.69843
-0.0898944
1.26096
-0.0421779
0.896785
0.00641755
0.592466
0.0484849
0.338527
0.047983
0.196464
0.0211345
0.118765
0.05615
-0.00434272
0.330341
-0.0114715
0.856849
-0.0194305
1.26871
-0.0285836
1.58298
-0.0393581
1.87436
-0.0517929
2.15343
-0.0667723
2.44351
-0.08458
2.75517
-0.105235
3.06897
-0.127577
3.36418
-0.143408
3.03088
-0.147034
2.26672
-0.136552
1.68794
-0.102242
1.22666
-0.0512629
0.845806
0.0213047
0.519898
0.120262
0.23957
0.194274
0.122452
0.182234
0.130806
0.238384
-0.00418564
0.334527
-0.0111169
0.86378
-0.0191033
1.2767
-0.0282818
1.59215
-0.0391696
1.88525
-0.0520424
2.1663
-0.0679461
2.45942
-0.0873129
2.77454
-0.110589
3.09225
-0.137367
3.39095
-0.159927
3.05344
-0.17014
2.27694
-0.158768
1.67657
-0.12887
1.19676
-0.0703557
0.787291
-0.0135519
0.463094
-0.0665842
0.292602
-0.357117
0.412984
-0.941975
0.715664
0.900352
-1.60394
-0.00403043
0.338557
-0.0108794
0.870629
-0.0185698
1.28439
-0.0275658
1.60115
-0.0384338
1.89612
-0.0514559
2.17933
-0.0677721
2.47573
-0.0881094
2.79487
-0.113301
3.11744
-0.143523
3.42118
-0.170232
3.08015
-0.184739
2.29144
-0.191878
1.68371
-0.172298
1.17718
-0.144504
0.759497
-0.237482
0.556073
-0.693268
0.748389
-1.44341
1.16312
-2.05078
1.32303
1.21674
-2.36717
-0.00379279
0.34235
-0.0102918
0.877128
-0.0178386
1.29194
-0.0266796
1.60999
-0.0373638
1.9068
-0.0504406
2.1924
-0.0671524
2.49244
-0.0883561
2.81608
-0.115326
3.14441
-0.149128
3.45498
-0.182693
3.11371
-0.207724
2.31648
-0.215535
1.69152
-0.204025
1.16567
-0.290021
0.845493
-0.753399
1.01945
-1.54586
1.54085
-2.11065
1.7279
-2.34971
1.5621
1.33095
-2.46392
-0.00364561
0.345996
-0.00989392
0.883377
-0.017065
1.29911
-0.0256527
1.61858
-0.0362393
1.91739
-0.0493988
2.20556
-0.0664228
2.50947
-0.0884761
2.83813
-0.117295
3.17323
-0.154903
3.49259
-0.193946
3.15276
-0.223848
2.34638
-0.250842
1.71852
-0.329964
1.24479
-0.684457
1.19999
-1.43801
1.77301
-2.02736
2.1302
-2.26696
1.96751
-2.38009
1.67523
1.39512
-2.44426
-0.00333598
0.349332
-0.00912718
0.889168
-0.0160654
1.30605
-0.0244311
1.62695
-0.0348364
1.9278
-0.0479626
2.21869
-0.0652343
2.52674
-0.0879809
2.86088
-0.118417
3.20366
-0.159465
3.53363
-0.205931
3.19922
-0.24972
2.39017
-0.29129
1.76009
-0.472022
1.42552
-1.09397
1.82193
-1.7883
2.46734
-2.10854
2.45044
-2.25662
2.11559
-2.33863
1.75723
1.46099
-2.4045
-0.00330458
0.352636
-0.00909763
0.894961
-0.0159132
1.31286
-0.0242841
1.63532
-0.0349895
1.9385
-0.0484738
2.23217
-0.0662797
2.54455
-0.0900271
2.88463
-0.12237
3.23601
-0.16734
3.5786
-0.21998
3.25186
-0.266073
2.43626
-0.355097
1.84911
-0.746658
1.81708
-1.49034
2.56561
-1.96318
2.94018
-2.163
2.65026
-2.26915
2.22175
-2.34622
1.8343
1.52443
-2.40966
-0.00336558
0.356002
-0.00929494
0.90089
-0.0165991
1.32017
-0.0254726
1.64419
-0.0366423
1.94967
-0.0507333
2.24626
-0.0694024
2.56321
-0.0943607
2.90958
-0.128647
3.27029
-0.177278
3.62723
-0.234316
3.3089
-0.296588
2.49853
-0.485448
2.03797
-1.04627
2.3779
-1.67825
3.19759
-1.95352
3.21545
-2.10033
2.79707
-2.21408
2.3355
-2.30758
1.9278
1.58605
-2.3692
-0.00346834
0.35947
-0.00987475
0.907297
-0.0174598
1.32775
-0.0267571
1.65349
-0.0385282
1.96144
-0.0533598
2.2611
-0.0729515
2.58281
-0.0992807
2.93591
-0.135668
3.30668
-0.188304
3.67987
-0.251225
3.37182
-0.33682
2.58413
-0.618264
2.31941
-1.26378
3.02342
-1.75268
3.68648
-1.95966
3.42244
-2.09944
2.93685
-2.22309
2.45916
-2.33344
2.03814
1.64461
-2.39199
-0.00339999
0.36287
-0.00988636
0.913783
-0.0181345
1.336
-0.0280834
1.66344
-0.0403703
1.97373
-0.0558425
2.27657
-0.0763457
2.60331
-0.103909
2.96348
-0.142156
3.34493
-0.197602
3.73532
-0.264625
3.43884
-0.389109
2.70861
-0.775528
2.70583
-1.41021
3.6581
-1.76277
4.03904
-1.93557
3.59523
-2.03737
3.03865
-2.12581
2.54759
-2.19294
2.10528
1.63735
-2.18569
-0.00338584
0.366256
-0.0104406
0.920838
-0.0189449
1.34451
-0.0293337
1.67382
-0.0423246
1.98672
-0.0586209
2.29286
-0.0801057
2.62479
-0.10908
2.99245
-0.149324
3.38517
-0.206731
3.79272
-0.285295
3.51741
-0.455246
2.87856
-0.906956
3.15754
-1.46257
4.21372
-1.72424
4.30071
-1.87582
3.74681
-1.96894
3.13178
-1.97025
2.5489
-1.90105
2.03608
1.60169
-1.86539
-0.00315021
0.369406
-0.010066
0.927754
-0.0193098
1.35375
-0.0303719
1.68489
-0.0437665
2.00011
-0.0604368
2.30953
-0.082328
2.64669
-0.111615
3.02174
-0.152129
3.42569
-0.208887
3.84948
-0.294206
3.60273
-0.498452
3.08281
-0.988285
3.64738
-1.42952
4.65495
-1.59454
4.46573
-1.66156
3.81383
-1.66596
3.13618
-1.51826
2.40119
-1.01813
1.53596
0.583553
-0.00270684
0.372113
-0.0104278
0.935475
-0.0198478
1.36317
-0.0314287
1.69647
-0.0459297
2.01462
-0.064053
2.32766
-0.087883
2.67052
-0.120011
3.05386
-0.164657
3.47033
-0.227881
3.9127
-0.330798
3.70564
-0.58515
3.33716
-1.12429
4.18652
-1.48247
5.01313
-1.58159
4.56485
-1.57935
3.81159
-1.47556
3.03239
-1.2365
2.16213
-0.632479
0.931934
-0.0489259
-0.00232814
0.374441
-0.00927644
0.942423
-0.0195662
1.37346
-0.0322027
1.7091
-0.0476038
2.03002
-0.0669365
2.34699
-0.0925847
2.69616
-0.127263
3.08854
-0.176066
3.51914
-0.245583
3.98222
-0.368134
3.82819
-0.682185
3.65121
-1.24207
4.74641
-1.50296
5.27402
-1.56118
4.62307
-1.53916
3.78957
-1.33715
2.83038
-0.783615
1.60859
-0.109083
0.257403
-0.158009
-0.00169687
0.376138
-0.00920839
0.949934
-0.0193127
1.38356
-0.0322686
1.72206
-0.0486962
2.04644
-0.069478
2.36777
-0.0971258
2.72381
-0.134844
3.12626
-0.187521
3.57181
-0.264861
4.05956
-0.413042
3.97637
-0.785697
4.02387
-1.32095
5.28166
-1.49697
5.45004
-1.52827
4.65438
-1.44012
3.70142
-1.10266
2.49292
-0.313729
0.819658
0.0250214
-0.0813468
-0.132988
-0.000449704
0.376588
-0.0065668
0.956051
-0.0175376
1.39453
-0.0316754
1.7362
-0.0488854
2.06365
-0.07076
2.38965
-0.100102
2.75315
-0.140028
3.16619
-0.195462
3.62725
-0.281569
4.14567
-0.456426
4.15123
-0.894473
4.46191
-1.36546
5.75265
-1.48221
5.56679
-1.48482
4.65699
-1.26013
3.47673
-0.687462
1.92025
-0.0625868
0.194783
0.0305456
-0.174479
-0.102442
0.000250867
0.376337
-0.00525358
0.961556
-0.0155575
1.40484
-0.0297006
1.75034
-0.0475846
2.08154
-0.0707972
2.41286
-0.101939
2.78429
-0.14446
3.20871
-0.203028
3.68581
-0.298294
4.24094
-0.499076
4.35201
-0.987088
4.94993
-1.36159
6.12715
-1.42545
5.63065
-1.37915
4.6107
-1.09032
3.18789
-0.323268
1.1532
0.00506368
-0.133549
0.015295
-0.184711
-0.0871472
0.00332434
0.373013
0.000415047
0.964465
-0.0109962
1.41625
-0.0263948
1.76574
-0.0446657
2.09981
-0.0687407
2.43693
-0.101076
2.81663
-0.145014
3.25265
-0.206127
3.74693
-0.309394
4.3442
-0.536956
4.57957
-1.04967
5.46264
-1.32479
6.40227
-1.36548
5.67134
-1.22582
4.47103
-0.773484
2.73556
-0.0699793
0.449698
0.0451292
-0.248657
0.024705
-0.164286
-0.0624422
0.00473053
0.368282
0.00299176
0.966204
-0.00654093
1.42578
-0.0205163
1.77971
-0.038817
2.11811
-0.0638852
2.462
-0.0973854
2.85013
-0.143222
3.29848
-0.206896
3.8106
-0.318237
4.45554
-0.575384
4.83672
-1.0702
5.95745
-1.26063
6.5927
-1.27022
5.68093
-1.05097
4.25178
-0.460546
2.14513
-0.0165927
0.00574449
-0.00497528
-0.260275
0.00592139
-0.175183
-0.0565208
0.00866604
0.359616
0.0100264
0.964844
0.00234757
1.43346
-0.0119585
1.79402
-0.0305856
2.13674
-0.0557382
2.48716
-0.0893611
2.88375
-0.134992
3.34411
-0.200065
3.87568
-0.317315
4.57279
-0.596114
5.11552
-1.04917
6.41051
-1.17039
6.71393
-1.15603
5.66657
-0.897257
3.99301
-0.264104
1.51198
-0.0703591
-0.188
-0.0381338
-0.2925
-0.0134308
-0.199886
-0.0699516
0.0117256
0.34789
0.0167828
0.959786
0.0121404
1.4381
0.00151411
1.80465
-0.0173501
2.1556
-0.0421355
2.51194
-0.0755183
2.91714
-0.121647
3.39024
-0.187374
3.9414
-0.308724
4.69414
-0.594955
5.40175
-0.980964
6.79651
-1.04995
6.78291
-0.978808
5.59542
-0.680443
3.69465
-0.0763972
0.907932
0.0101017
-0.274499
-0.00484766
-0.277551
-0.0031031
-0.201631
-0.0730547
0.0184704
0.32942
0.0300791
0.948178
0.0282815
1.4399
0.016898
1.81603
-0.000946754
2.17345
-0.0231949
2.53419
-0.0549377
2.94888
-0.0988283
3.43413
-0.162495
4.00507
-0.282794
4.81444
-0.559803
5.67876
-0.869722
7.10643
-0.904257
6.81745
-0.807473
5.49864
-0.453569
3.34074
0.0569249
0.397438
0.0686313
-0.286205
0.0502336
-0.259153
0.0186835
-0.17008
-0.0543712
0.0244958
0.304924
0.0430968
0.929577
0.04676
1.43624
0.0401293
1.82266
0.0272335
2.18634
0.00546518
2.55596
-0.0242707
2.97862
-0.0658192
3.47568
-0.126554
4.0658
-0.241314
4.9292
-0.486895
5.92434
-0.7097
7.32924
-0.738885
6.84664
-0.628621
5.38838
-0.30515
3.01727
-0.00563223
0.0979202
0.0160869
-0.307925
0.0315454
-0.274611
0.0163351
-0.15487
-0.0380361
0.034912
0.270012
0.0648945
0.899594
0.0752984
1.42583
0.0714293
1.82653
0.0607924
2.19698
0.0423462
2.5744
0.0162362
3.00473
-0.0206144
3.51253
-0.0740241
4.11921
-0.171071
5.02625
-0.369088
6.12236
-0.523401
7.48355
-0.554825
6.87806
-0.457166
5.29072
-0.177276
2.73738
-0.0546641
-0.0246919
-0.0337534
-0.328835
-0.00615886
-0.302206
0.00186049
-0.162889
-0.0361756
0.0444174
0.225595
0.0873035
0.856708
0.108212
1.40492
0.113158
1.82158
0.108688
2.20145
0.0945868
2.5885
0.0740928
3.02522
0.04338
3.54324
-0.00596816
4.16856
-0.0779601
5.09824
-0.210985
6.25538
-0.294991
7.56756
-0.31627
6.89934
-0.251314
5.22576
-0.0390132
2.52508
-0.0656987
0.00199362
-0.072982
-0.321552
-0.0319046
-0.343283
0.0107709
-0.205565
-0.0254047
0.057165
0.16843
0.119329
0.794544
0.155062
1.36919
0.166558
1.81009
0.166839
2.20117
0.157859
2.59748
0.144617
3.03846
0.124559
3.5633
0.0935563
4.19956
0.0517172
5.14008
0.00703543
6.30006
-0.0290867
7.60368
-0.0240898
6.89434
-0.0544796
5.25615
-0.0570294
2.52763
-0.281378
0.226342
-0.286232
-0.316698
-0.176762
-0.452753
-0.0263431
-0.355983
-0.0517478
0.0598286
0.108601
0.149471
0.704901
0.206434
1.31223
0.234043
1.78248
0.245506
2.1897
0.244656
2.59833
0.239589
3.04353
0.229941
3.57295
0.216777
4.21273
0.201971
5.15489
0.271138
6.2309
0.330534
7.54428
0.284601
6.94027
0.0719938
5.46876
-0.274667
2.87429
-0.642434
0.59411
-0.640429
-0.318703
-0.479829
-0.613354
-0.216754
-0.619058
-0.268502
0.0506514
0.0579497
0.181366
0.574186
0.274505
1.21909
0.318186
1.7388
0.338212
2.16968
0.346662
2.58988
0.349162
3.04103
0.355132
3.56698
0.366564
4.2013
0.395418
5.12603
0.556794
6.06952
0.739776
7.3613
0.763751
6.9163
0.678604
5.55391
0.20368
3.34922
-0.35526
1.15305
-0.66283
-0.0111332
-0.619515
-0.656668
-0.336488
-0.902085
-0.60499
0.0352181
0.0227316
0.21551
0.393895
0.340924
1.09368
0.417967
1.66176
0.458189
2.12946
0.481444
2.56663
0.49201
3.03046
0.510579
3.54841
0.545067
4.16681
0.619169
5.05193
0.916523
5.77217
1.37516
6.90266
1.72731
6.56415
1.98116
5.30006
1.67298
3.6574
0.971075
1.85495
0.359205
0.600737
-0.00730456
-0.290158
-0.12581
-0.78358
-0.7308
0.0311504
-0.0084188
0.234681
0.190364
0.43539
0.892968
0.544756
1.55239
0.596565
2.07765
0.630874
2.53232
0.653435
3.0079
0.684457
3.51739
0.746947
4.10432
0.881935
4.91694
1.2839
5.3702
2.01044
6.17612
2.38987
6.18472
2.59542
5.09451
2.43877
3.81405
1.88614
2.40758
1.3332
1.15367
0.764635
0.278405
0.274896
-0.293841
-0.455904
0.0274492
-0.035868
0.170063
0.0477504
0.484825
0.578206
0.672502
1.36471
0.767397
1.98275
0.818041
2.48168
0.856437
2.96951
0.886743
3.48708
0.961868
4.02919
1.10845
4.77037
1.48573
4.99292
2.27251
5.38934
2.64037
5.81686
2.82836
4.90652
2.73167
3.91074
2.25717
2.88208
1.61591
1.79494
0.981922
0.912391
0.424403
0.263678
-0.0315014
0.0077086
-0.0435766
0.0883503
-0.0328913
0.41063
0.255926
0.683249
1.09209
0.810071
1.85593
0.847307
2.44444
0.858085
2.95873
0.847978
3.49719
0.847071
4.0301
0.890885
4.72655
1.02253
4.86127
1.42858
4.9833
1.62157
5.62388
1.64408
4.884
1.56695
3.98787
1.35472
3.09432
1.0009
2.14875
0.634703
1.27858
0.260361
0.638021
0.228859
0.000431714
-0.0440083
0.0397019
-0.0721615
0.22758
0.0680481
0.512053
0.80762
0.672936
1.69505
0.726216
2.39116
0.739353
2.94559
0.73384
3.5027
0.718097
4.04584
0.736509
4.70814
0.793753
4.80402
1.04935
4.7277
1.26721
5.40602
1.27401
4.8772
1.21246
4.04942
1.06269
3.24409
0.794807
2.41663
0.495958
1.57743
0.205399
0.92858
0.434258
0.000342071
-0.0443504
0.0228609
-0.0946804
0.105025
-0.0141157
0.357269
0.555376
0.518327
1.53399
0.591321
2.31817
0.611376
2.92554
0.612121
3.50196
0.589602
4.06836
0.581144
4.7166
0.606442
4.77872
0.760553
4.57359
0.942762
5.22381
0.940856
4.87911
0.878164
4.11212
0.762199
3.36005
0.578133
2.6007
0.351907
1.80366
0.136811
1.14368
0.571069
-0.0067136
-0.0376368
0.00509473
-0.106489
0.0509343
-0.0599552
0.252524
0.353785
0.394782
1.39173
0.45891
2.25404
0.475721
2.90872
0.480616
3.49707
0.46748
4.0815
0.454615
4.72946
0.455173
4.77817
0.546652
4.48211
0.677411
5.09305
0.674203
4.88232
0.609969
4.17635
0.516353
3.45367
0.386607
2.73045
0.226441
1.96383
0.078504
1.29161
0.649573
0.0168962
-0.054533
0.0597536
-0.149346
0.101727
-0.101929
0.197547