/*--------------------------------*- C++ -*----------------------------------*\
| =========                 |                                                 |
| \\      /  F ield         | OpenFOAM: The Open Source CFD Toolbox           |
|  \\    /   O peration     | Version:  v2012                                 |
|   \\  /    A nd           | Website:  www.openfoam.com                      |
|    \\/     M anipulation  |                                                 |
\*---------------------------------------------------------------------------*/
FoamFile
{
    version     2.0;
    format      ascii;
    class       volScalarField;
    location    "27";
    object      p;
}
// * * * * * * * * * * * * * * * * * * * * * * * * * * * * * * * * * * * * * //

dimensions      [0 2 -2 0 0 0 0];


internalField   nonuniform List<scalar> 
2200
(
0.477291
0.455792
0.439883
0.424214
0.409605
0.397079
0.386717
0.378601
0.372871
0.369812
0.370171
0.373831
0.380018
0.388453
0.399043
0.411746
0.42647
0.442261
0.458237
0.47975
0.409735
0.406477
0.403554
0.399435
0.393967
0.387489
0.380854
0.374863
0.370311
0.367833
0.368173
0.371306
0.376343
0.382694
0.389586
0.396237
0.401856
0.406005
0.408915
0.412223
0.369831
0.370053
0.372109
0.373447
0.373836
0.37298
0.370977
0.368262
0.365632
0.364046
0.36443
0.366721
0.369873
0.372973
0.375236
0.376225
0.375918
0.374836
0.373044
0.3728
0.347322
0.348773
0.351378
0.353839
0.356293
0.358308
0.359469
0.359703
0.359286
0.358856
0.35932
0.360525
0.361535
0.361746
0.360935
0.359188
0.356932
0.354609
0.351992
0.350575
0.333053
0.335017
0.337853
0.340712
0.343568
0.346386
0.34883
0.350646
0.351824
0.352483
0.35302
0.353273
0.352811
0.35154
0.349506
0.347002
0.344357
0.341564
0.338752
0.336825
0.325906
0.327507
0.329711
0.332234
0.334881
0.337521
0.340033
0.342359
0.344254
0.345555
0.346182
0.345982
0.344947
0.343259
0.34121
0.33892
0.336516
0.334133
0.332005
0.330422
0.322529
0.323544
0.32483
0.326732
0.328908
0.331071
0.333206
0.33541
0.337499
0.339147
0.339909
0.339618
0.338564
0.337116
0.335539
0.333776
0.331905
0.330202
0.329018
0.328012
0.320017
0.320653
0.32133
0.322715
0.324412
0.326142
0.327883
0.329737
0.33165
0.333398
0.334313
0.334211
0.333556
0.332655
0.331594
0.330396
0.329091
0.327967
0.327411
0.326769
0.317303
0.317733
0.318184
0.319261
0.320603
0.32203
0.323503
0.325056
0.326682
0.328304
0.329425
0.329812
0.329716
0.329339
0.328734
0.327936
0.327035
0.326265
0.325955
0.325519
0.313732
0.314017
0.314439
0.31547
0.316767
0.318205
0.319725
0.321268
0.322822
0.324405
0.325821
0.326734
0.327091
0.32697
0.326511
0.325817
0.325078
0.324417
0.324148
0.323856
0.309417
0.309564
0.309988
0.311059
0.31245
0.314068
0.315882
0.317785
0.319702
0.321588
0.323348
0.324523
0.324977
0.324847
0.324325
0.323654
0.322937
0.322295
0.322036
0.321886
0.305017
0.305063
0.305471
0.306484
0.30784
0.309488
0.311419
0.313604
0.316006
0.31848
0.32062
0.321931
0.322415
0.322397
0.322066
0.321592
0.321025
0.320538
0.320343
0.320283
0.300734
0.300718
0.301123
0.301974
0.303207
0.304729
0.306522
0.308664
0.311267
0.314191
0.316862
0.318721
0.319788
0.320341
0.320491
0.32035
0.320083
0.319832
0.319708
0.319689
0.296513
0.296395
0.296811
0.297533
0.298749
0.300246
0.302012
0.304186
0.30688
0.310136
0.31347
0.316155
0.318039
0.31921
0.31982
0.320063
0.320117
0.320083
0.320031
0.320016
0.292051
0.292005
0.292315
0.293082
0.29437
0.296016
0.298067
0.300623
0.303763
0.307594
0.311665
0.315029
0.317405
0.318968
0.319996
0.320591
0.320887
0.321002
0.321023
0.321012
0.287056
0.287053
0.287333
0.288114
0.289505
0.291324
0.29372
0.296841
0.30075
0.305535
0.31059
0.314708
0.317596
0.319598
0.321013
0.3219
0.322404
0.322682
0.322781
0.322768
0.281139
0.281099
0.281456
0.282268
0.283633
0.285575
0.28826
0.291882
0.296605
0.302549
0.308907
0.314176
0.317963
0.320695
0.322641
0.323942
0.324766
0.325242
0.325406
0.325372
0.273733
0.273673
0.274059
0.275006
0.276559
0.278776
0.281877
0.28612
0.291774
0.299027
0.306966
0.313666
0.318636
0.322254
0.324849
0.326653
0.327851
0.328534
0.328775
0.32872
0.264814
0.264743
0.265175
0.26629
0.268203
0.270979
0.274857
0.280132
0.287114
0.296024
0.305785
0.314039
0.320214
0.324716
0.327983
0.330273
0.331818
0.332672
0.332969
0.332893
0.254004
0.25395
0.254533
0.255959
0.25838
0.261915
0.266858
0.273547
0.28236
0.293447
0.305367
0.315414
0.322868
0.328338
0.332256
0.334997
0.336832
0.337831
0.338199
0.338113
0.240766
0.240673
0.241413
0.243247
0.246373
0.250919
0.257228
0.265773
0.2769
0.290686
0.305257
0.317454
0.326449
0.33304
0.337745
0.341073
0.343291
0.344488
0.344916
0.3448
0.22409
0.224035
0.225069
0.227487
0.231563
0.237492
0.245725
0.256676
0.270691
0.287741
0.305461
0.320152
0.330974
0.338911
0.344633
0.34866
0.351298
0.352715
0.353223
0.353078
0.203228
0.203105
0.204527
0.20781
0.21332
0.221339
0.232196
0.246363
0.264026
0.284961
0.306317
0.323867
0.336788
0.346233
0.353054
0.357886
0.361084
0.362801
0.36339
0.363187
0.175754
0.175896
0.178202
0.182998
0.190819
0.201901
0.216523
0.234961
0.257115
0.282645
0.30815
0.328831
0.343994
0.355122
0.363223
0.368982
0.372776
0.374775
0.375439
0.3752
0.139244
0.139649
0.143484
0.151203
0.162916
0.178855
0.198735
0.222542
0.250126
0.280972
0.311033
0.335102
0.352706
0.36565
0.375147
0.381989
0.386552
0.388973
0.389729
0.389363
0.0904457
0.090994
0.0983661
0.111278
0.129379
0.152288
0.178924
0.209365
0.243296
0.280024
0.314974
0.342611
0.362795
0.377703
0.388766
0.396845
0.402274
0.405018
0.405739
0.405294
0.0248134
0.0278478
0.0437145
0.0655931
0.0924687
0.123499
0.158008
0.195982
0.237
0.280362
0.32094
0.352886
0.376403
0.394018
0.407282
0.417258
0.424248
0.42757
0.428236
0.427967
-0.0509344
-0.0404979
-0.0136574
0.0180544
0.0546572
0.0945852
0.137204
0.182971
0.231347
0.281763
0.328584
0.365567
0.393182
0.414212
0.430423
0.442804
0.452107
0.456728
0.457954
0.458264
-0.117374
-0.101338
-0.0678159
-0.0278679
0.017849
0.0663582
0.117095
0.170586
0.226216
0.283531
0.336393
0.378126
0.409205
0.433029
0.451494
0.465745
0.476109
0.482073
0.484007
0.484014
-0.166968
-0.152851
-0.114112
-0.0683834
-0.015648
0.0399696
0.098022
0.158723
0.221287
0.28524
0.343671
0.389452
0.42334
0.449278
0.469504
0.485103
0.496075
0.502142
0.504069
0.50421
-0.207786
-0.194635
-0.152625
-0.103099
-0.0451263
0.0161332
0.0804159
0.147504
0.216349
0.286265
0.349689
0.398914
0.435206
0.46256
0.483367
0.499257
0.51072
0.517029
0.519247
0.519431
-0.243031
-0.229601
-0.185301
-0.132996
-0.0710145
-0.00521184
0.0642578
0.136754
0.211053
0.286315
0.354353
0.40677
0.444727
0.472776
0.494196
0.510517
0.522142
0.528818
0.531216
0.531395
-0.273855
-0.260317
-0.214086
-0.159453
-0.094149
-0.0245627
0.0492296
0.126316
0.205477
0.285754
0.357906
0.41274
0.451925
0.480987
0.502767
0.519193
0.531306
0.538138
0.540758
0.540907
-0.301676
-0.288097
-0.240218
-0.183411
-0.115215
-0.042467
0.0349812
0.116095
0.199639
0.284391
0.360237
0.417458
0.458293
0.48799
0.510217
0.526936
0.538862
0.546026
0.548368
0.548228
-0.327136
-0.313618
-0.264458
-0.205526
-0.134724
-0.0593092
0.0212661
0.10591
0.193322
0.281987
0.361456
0.421418
0.463774
0.494447
0.517123
0.533991
0.545793
0.552669
0.555148
0.555053
-0.35116
-0.337346
-0.287235
-0.226294
-0.153126
-0.0753922
0.00787358
0.0955729
0.186427
0.27892
0.36238
0.425277
0.469147
0.500758
0.523796
0.540621
0.552437
0.559209
0.56169
0.561713
-0.373747
-0.359779
-0.308894
-0.246125
-0.170916
-0.0910524
-0.00537374
0.0850364
0.17906
0.275346
0.362577
0.428395
0.474489
0.507125
0.530488
0.547408
0.559229
0.565798
0.568354
0.568375
-0.395104
-0.381169
-0.329643
-0.265329
-0.188382
-0.10653
-0.0186114
0.0742675
0.171187
0.270888
0.361992
0.43129
0.479629
0.513302
0.537356
0.554459
0.566298
0.572813
0.575168
0.575181
-0.41568
-0.40154
-0.349633
-0.284092
-0.205701
-0.122002
-0.0319735
0.0632033
0.162861
0.266028
0.361259
0.433895
0.484423
0.519842
0.544586
0.561871
0.573587
0.579817
0.582126
0.582077
-0.435958
-0.421228
-0.369009
-0.302437
-0.222855
-0.137503
-0.0455286
0.0518376
0.154037
0.260267
0.358762
0.434953
0.488951
0.526581
0.552314
0.569721
0.581122
0.587148
0.589125
0.588967
-0.455921
-0.440394
-0.387865
-0.320354
-0.239784
-0.153009
-0.0592979
0.0400226
0.144418
0.253236
0.355461
0.435868
0.493253
0.533468
0.560764
0.578406
0.58915
0.594299
0.595966
0.595715
-0.475451
-0.459175
-0.406226
-0.3378
-0.256387
-0.168444
-0.0732959
0.0276979
0.134132
0.245587
0.351263
0.435268
0.496835
0.540547
0.570081
0.588275
0.597872
0.601782
0.602506
0.602225
-0.494349
-0.477533
-0.424092
-0.354756
-0.27259
-0.183709
-0.0873927
0.0150777
0.123286
0.236894
0.345086
0.433432
0.499528
0.547467
0.580344
0.60014
0.608693
0.608731
0.607956
0.608432
-0.512603
-0.495389
-0.441416
-0.371213
-0.28835
-0.19869
-0.101442
0.00216205
0.111786
0.227158
0.338238
0.430771
0.501117
0.553988
0.59143
0.614285
0.623207
0.61889
0.613594
0.611312
-0.530169
-0.512644
-0.45816
-0.387161
-0.303644
-0.213333
-0.115373
-0.0108938
0.0999694
0.217074
0.330477
0.425588
0.50057
0.55941
0.602959
0.631204
0.644671
0.63482
0.629984
0.634728
-0.54707
-0.529233
-0.474264
-0.40257
-0.318468
-0.227595
-0.12904
-0.0238383
0.0879873
0.206533
0.321456
0.419099
0.498285
0.562572
0.613334
0.649688
0.672178
0.652675
0.60818
0.564379
-0.563237
-0.545167
-0.489766
-0.417515
-0.332937
-0.241607
-0.1426
-0.0368914
0.0756332
0.195063
0.311032
0.410455
0.492574
0.562456
0.621126
0.668597
0.70642
0.71369
0.732746
0.783773
-0.578636
-0.560496
-0.504747
-0.43212
-0.347233
-0.255619
-0.156355
-0.050395
0.0624058
0.182122
0.298867
0.399224
0.482996
0.556421
0.618704
0.66819
0.698852
0.699709
0.670534
0.67908
-0.593232
-0.575192
-0.519165
-0.446323
-0.36127
-0.269539
-0.170209
-0.0642723
0.0483879
0.168071
0.284863
0.384746
0.467792
0.540481
0.601314
0.646272
0.649687
0.608901
0.55207
0.542681
-0.60705
-0.589252
-0.533015
-0.460114
-0.375039
-0.28338
-0.18419
-0.0785407
0.0336513
0.152666
0.268574
0.367077
0.447167
0.513748
0.567247
0.585417
0.556609
0.48747
0.416592
0.403202
-0.620123
-0.602672
-0.546317
-0.473515
-0.388554
-0.297148
-0.198294
-0.0931799
0.0181791
0.136023
0.250482
0.346505
0.420285
0.473883
0.503195
0.49506
0.447155
0.348104
0.262173
0.244744
-0.632908
-0.615868
-0.559466
-0.486887
-0.402158
-0.311144
-0.212792
-0.108419
0.00183226
0.118034
0.230002
0.321957
0.389375
0.426796
0.42164
0.387998
0.283985
0.163001
0.0564501
0.0330558
-0.646291
-0.62961
-0.573155
-0.500857
-0.416421
-0.325832
-0.228061
-0.124554
-0.0156315
0.098353
0.207191
0.294089
0.353715
0.368499
0.331137
0.246016
0.0892303
-0.0634074
-0.191096
-0.21617
-0.660774
-0.644333
-0.5877
-0.515653
-0.431515
-0.341325
-0.244168
-0.141618
-0.0342173
0.0772159
0.182021
0.263204
0.310755
0.299673
0.240025
0.0896128
-0.115594
-0.332426
-0.514767
-0.560925
-0.676434
-0.66008
-0.60315
-0.531297
-0.447417
-0.35758
-0.26105
-0.159549
-0.053801
0.0547115
0.154319
0.230296
0.262701
0.218739
0.125329
-0.0706693
-0.312948
-0.612984
-0.943884
-1.08682
-0.693326
-0.676987
-0.619602
-0.547853
-0.464158
-0.374645
-0.27876
-0.178374
-0.074454
0.0308188
0.124609
0.194228
0.210542
0.133469
-0.0112777
-0.23157
-0.4817
-0.844236
-1.45244
-2.03551
-0.711463
-0.695056
-0.637106
-0.565378
-0.481758
-0.392515
-0.297254
-0.198044
-0.0960287
0.00602883
0.0941075
0.15601
0.155137
0.0559618
-0.145559
-0.39998
-0.621962
-0.881603
-1.47713
-3.07105
-0.730882
-0.714404
-0.655734
-0.583967
-0.500348
-0.411369
-0.316769
-0.218786
-0.118775
-0.0200423
0.062044
0.114608
0.0952989
-0.00628319
-0.246349
-0.512762
-0.678737
-0.736127
-0.755953
-1.16068
-0.751495
-0.73502
-0.675643
-0.603916
-0.52031
-0.431671
-0.337864
-0.241314
-0.14365
-0.0488708
0.0277466
0.0698195
0.0330408
-0.0557001
-0.299335
-0.53264
-0.663204
-0.683957
-0.640468
-0.685864
-0.773291
-0.75682
-0.696817
-0.625251
-0.541663
-0.453492
-0.360651
-0.265734
-0.170739
-0.0803499
-0.00829787
0.0244635
-0.0241512
-0.109287
-0.33683
-0.525642
-0.622493
-0.633283
-0.679062
-0.690994
-0.796117
-0.779478
-0.719203
-0.647976
-0.56437
-0.476811
-0.385097
-0.291983
-0.199923
-0.114289
-0.0472076
-0.023121
-0.0742766
-0.168906
-0.369725
-0.518093
-0.603008
-0.566664
-0.593615
-0.596251
-0.819792
-0.802737
-0.742724
-0.671949
-0.588229
-0.501475
-0.411032
-0.319928
-0.231096
-0.150162
-0.0879651
-0.0737576
-0.12011
-0.23937
-0.410976
-0.518064
-0.576622
-0.608067
-0.592484
-0.599442
-0.843692
-0.826319
-0.767346
-0.696933
-0.612987
-0.527258
-0.4382
-0.349173
-0.263856
-0.187473
-0.129527
-0.127208
-0.163259
-0.304771
-0.454409
-0.534289
-0.532908
-0.594448
-0.569639
-0.578018
-0.867417
-0.850028
-0.792551
-0.722348
-0.638327
-0.553847
-0.466178
-0.379296
-0.297833
-0.226035
-0.171129
-0.179584
-0.214068
-0.361168
-0.489392
-0.573152
-0.540554
-0.574796
-0.569019
-0.570838
-0.890435
-0.873456
-0.817439
-0.747512
-0.663871
-0.580737
-0.494468
-0.409692
-0.332318
-0.265037
-0.210812
-0.229997
-0.275855
-0.410631
-0.509658
-0.57659
-0.592353
-0.575313
-0.580185
-0.574
-0.9121
-0.895838
-0.841074
-0.771676
-0.68926
-0.607391
-0.522425
-0.43963
-0.365925
-0.304203
-0.249158
-0.279376
-0.343363
-0.457109
-0.510829
-0.549119
-0.617227
-0.567964
-0.582074
-0.573593
-0.931449
-0.916254
-0.862872
-0.79419
-0.713773
-0.632787
-0.549091
-0.468283
-0.397513
-0.342103
-0.285264
-0.324217
-0.417711
-0.522011
-0.521172
-0.435248
-0.548477
-0.519071
-0.559031
-0.559021
-0.947385
-0.933567
-0.881985
-0.814418
-0.736255
-0.656011
-0.573729
-0.494565
-0.425692
-0.377222
-0.319699
-0.358214
-0.495253
-0.601701
-0.569157
-0.451072
-0.49895
-0.52756
-0.554806
-0.56535
-0.958853
-0.946806
-0.897771
-0.83161
-0.755233
-0.675863
-0.594946
-0.517427
-0.449101
-0.406274
-0.354671
-0.37996
-0.571133
-0.769539
-0.875198
-0.890253
-0.887215
-0.869319
-0.847425
-0.830744
-0.964816
-0.954715
-0.908762
-0.844282
-0.769355
-0.691237
-0.611671
-0.535261
-0.467249
-0.42547
-0.384531
-0.392784
-0.630167
-0.995342
-1.46138
-1.72554
-1.7707
-1.72107
-1.61154
-1.5258
-0.964421
-0.956212
-0.913942
-0.851387
-0.777828
-0.701042
-0.622546
-0.546278
-0.477037
-0.431316
-0.39883
-0.393204
-0.629148
-1.02272
-1.56678
-1.88348
-1.91232
-1.79596
-1.68959
-1.62383
-0.956566
-0.949461
-0.911477
-0.851415
-0.779629
-0.703909
-0.626009
-0.549332
-0.47605
-0.42092
-0.38684
-0.361586
-0.493404
-0.634487
-0.811482
-0.878398
-0.812387
-0.716488
-0.599158
-0.501877
-0.938921
-0.931857
-0.8999
-0.843661
-0.774142
-0.699447
-0.621543
-0.543081
-0.463367
-0.392275
-0.339056
-0.245889
-0.179596
0.0335708
0.254266
0.450277
0.631602
0.753376
0.818679
0.850454
-0.906938
-0.900336
-0.877485
-0.827705
-0.761149
-0.687459
-0.609022
-0.52764
-0.440303
-0.348567
-0.266343
-0.112656
0.119161
0.513935
0.931023
1.27206
1.51269
1.65624
1.72112
1.74289
-0.860236
-0.855511
-0.846225
-0.804534
-0.741685
-0.668906
-0.590095
-0.506229
-0.414368
-0.305086
-0.196579
-0.0562663
0.252167
0.654508
1.07015
1.42409
1.68679
1.84482
1.91396
1.93165
-0.818969
-0.818045
-0.814029
-0.777632
-0.718874
-0.647623
-0.568339
-0.483435
-0.39192
-0.279191
-0.164336
-0.0705338
0.185919
0.5193
0.854422
1.14118
1.36764
1.50826
1.57502
1.59635
-0.786992
-0.789321
-0.782008
-0.750705
-0.69354
-0.624492
-0.547464
-0.464448
-0.378563
-0.281694
-0.175524
-0.109586
0.0653816
0.323967
0.585084
0.797074
0.964116
1.07773
1.13269
1.15113
-0.741289
-0.744044
-0.740063
-0.715954
-0.662798
-0.598489
-0.52732
-0.450746
-0.373709
-0.294933
-0.198709
-0.143005
-0.0337694
0.163251
0.373992
0.535023
0.657645
0.746936
0.787753
0.79804
-0.677269
-0.679617
-0.678756
-0.662024
-0.619032
-0.56531
-0.5049
-0.438946
-0.371586
-0.30587
-0.222717
-0.170756
-0.110016
0.0330486
0.196826
0.312847
0.399891
0.463101
0.492015
0.499466
-0.596118
-0.597943
-0.597916
-0.587145
-0.558093
-0.520376
-0.474516
-0.422569
-0.364485
-0.309796
-0.241241
-0.193124
-0.160382
-0.0551358
0.0622661
0.140819
0.202554
0.249529
0.268613
0.274451
-0.509172
-0.510713
-0.510772
-0.504653
-0.488726
-0.466092
-0.435271
-0.399443
-0.350693
-0.309019
-0.255762
-0.21202
-0.195785
-0.112013
-0.0294827
0.0225555
0.0678466
0.102982
0.12003
0.125404
-0.432771
-0.433826
-0.434317
-0.431929
-0.424979
-0.413364
-0.395308
-0.373501
-0.334278
-0.305561
-0.266706
-0.233666
-0.220333
-0.156012
-0.0973064
-0.0580951
-0.0256178
-0.00301381
0.0100177
0.0143773
-0.376464
-0.377059
-0.377889
-0.378151
-0.376494
-0.371846
-0.36229
-0.350627
-0.320225
-0.299947
-0.27104
-0.250536
-0.236296
-0.194076
-0.151669
-0.119901
-0.0959793
-0.0836243
-0.0791278
-0.0779037
-0.341454
-0.341854
-0.342834
-0.344321
-0.345497
-0.344687
-0.339737
-0.332308
-0.312001
-0.292823
-0.268445
-0.254951
-0.242852
-0.215631
-0.185618
-0.16497
-0.152121
-0.146338
-0.145619
-0.146604
-0.323853
-0.324003
-0.324744
-0.326404
-0.328446
-0.328978
-0.32616
-0.320126
-0.30586
-0.286134
-0.25972
-0.246651
-0.237446
-0.222035
-0.203433
-0.193784
-0.188448
-0.185337
-0.186009
-0.188854
-0.320108
-0.319988
-0.320249
-0.321308
-0.322705
-0.322618
-0.319915
-0.313698
-0.301347
-0.281762
-0.252657
-0.233862
-0.225864
-0.21793
-0.20739
-0.205802
-0.207539
-0.213914
-0.217039
-0.218845
-0.328411
-0.328048
-0.327891
-0.328368
-0.329337
-0.325687
-0.323496
-0.316277
-0.302875
-0.285157
-0.251537
-0.226678
-0.212312
-0.212705
-0.212453
-0.219402
-0.218738
-0.226489
-0.231196
-0.231297
-0.348385
-0.347374
-0.346571
-0.346078
-0.345489
-0.343226
-0.340193
-0.332826
-0.321469
-0.30157
-0.263404
-0.235388
-0.211914
-0.228355
-0.21832
-0.219582
-0.21194
-0.20127
-0.201554
-0.202513
-0.378062
-0.377373
-0.376678
-0.375616
-0.37462
-0.37252
-0.370444
-0.365059
-0.359007
-0.341451
-0.307251
-0.27082
-0.257162
-0.263757
-0.232015
-0.20889
-0.187612
-0.161776
-0.150062
-0.160954
-0.416569
-0.415973
-0.415628
-0.415084
-0.414715
-0.414615
-0.416246
-0.418111
-0.422501
-0.41629
-0.383869
-0.330566
-0.320618
-0.311851
-0.271385
-0.23019
-0.200167
-0.182764
-0.167919
-0.177714
-0.461776
-0.461389
-0.461426
-0.462109
-0.46401
-0.468405
-0.477769
-0.493551
-0.514602
-0.530049
-0.497219
-0.414987
-0.379658
-0.360115
-0.325141
-0.29025
-0.257826
-0.254171
-0.244477
-0.24432
-0.508537
-0.508696
-0.509745
-0.512126
-0.517557
-0.529019
-0.551147
-0.588354
-0.63623
-0.690637
-0.661629
-0.539916
-0.469556
-0.421607
-0.379384
-0.344374
-0.299231
-0.286028
-0.296765
-0.293292
-0.546178
-0.547113
-0.549564
-0.554495
-0.564815
-0.585611
-0.624693
-0.689958
-0.787473
-0.890173
-0.86397
-0.712951
-0.616268
-0.531735
-0.449356
-0.390471
-0.36224
-0.340109
-0.351114
-0.352121
-0.562212
-0.563984
-0.568383
-0.576182
-0.590838
-0.620216
-0.675249
-0.769283
-0.921323
-1.0667
-1.05438
-0.894532
-0.765795
-0.638948
-0.539785
-0.466926
-0.451875
-0.44725
-0.443159
-0.443198
-0.5458
-0.548576
-0.551807
-0.560877
-0.579968
-0.614362
-0.676202
-0.782634
-0.958144
-1.14941
-1.16979
-0.986042
-0.828827
-0.683226
-0.594094
-0.551039
-0.511538
-0.5227
-0.514211
-0.512748
-0.497478
-0.49987
-0.50341
-0.510561
-0.527388
-0.561566
-0.623859
-0.730886
-0.897701
-1.08132
-1.10944
-0.936885
-0.764931
-0.664237
-0.593686
-0.557343
-0.548302
-0.544711
-0.54063
-0.538959
-0.417523
-0.419383
-0.422718
-0.428983
-0.442273
-0.469794
-0.521307
-0.611006
-0.74739
-0.889451
-0.910662
-0.76552
-0.625296
-0.586959
-0.562287
-0.524061
-0.536008
-0.529811
-0.526477
-0.524251
-0.319978
-0.321092
-0.323049
-0.327043
-0.335979
-0.354992
-0.390946
-0.453739
-0.547345
-0.641734
-0.647019
-0.539901
-0.488694
-0.481743
-0.482864
-0.487973
-0.484244
-0.47759
-0.472354
-0.470089
-0.219635
-0.220106
-0.220845
-0.222423
-0.226991
-0.237725
-0.258767
-0.296261
-0.351558
-0.409277
-0.399169
-0.328677
-0.342562
-0.357512
-0.373533
-0.397556
-0.383562
-0.380593
-0.378941
-0.377185
-0.132469
-0.132521
-0.132711
-0.133158
-0.134756
-0.138953
-0.147313
-0.162366
-0.182782
-0.20672
-0.195333
-0.19715
-0.213744
-0.240109
-0.263088
-0.274066
-0.269018
-0.268294
-0.267356
-0.266449
-0.0625685
-0.0622646
-0.0620751
-0.0611211
-0.0604071
-0.060855
-0.0629558
-0.0680251
-0.0707551
-0.0628058
-0.0558284
-0.0867475
-0.107269
-0.132804
-0.149239
-0.153056
-0.153545
-0.153577
-0.152592
-0.152293
-0.0141974
-0.0137321
-0.0131389
-0.0114816
-0.0100179
-0.00919224
-0.00803357
-0.00664559
-0.00397534
0.000696538
-0.013734
-0.0281052
-0.0333721
-0.0408603
-0.04676
-0.0419542
-0.0425044
-0.0442125
-0.0449411
-0.0452437
-1.44033
-0.564379
-0.291444
-0.00452016
0.188615
0.355696
0.495591
0.637604
0.789387
0.866386
-0.428931
-0.00484736
0.0211786
0.216345
0.350798
0.470944
0.575335
0.667236
0.697763
0.653663
-0.0278938
0.195756
0.238405
0.378687
0.471798
0.557399
0.628028
0.680638
0.684727
0.69712
0.214059
0.366282
0.402727
0.5113
0.570192
0.632222
0.679538
0.713131
0.723089
0.746177
0.403732
0.507974
0.538222
0.611871
0.656377
0.700449
0.734027
0.758983
0.769418
0.800473
0.5498
0.622458
0.652981
0.699044
0.736082
0.767614
0.792885
0.813914
0.828595
0.856509
0.672385
0.724912
0.751155
0.780619
0.809424
0.83397
0.854531
0.874045
0.889238
0.915509
0.778099
0.816594
0.83813
0.859506
0.881142
0.901098
0.918807
0.937148
0.952115
0.975718
0.873738
0.902858
0.920185
0.935968
0.952627
0.969039
0.984777
1.00187
1.01547
1.03778
0.962859
0.983787
0.999014
1.01248
1.02633
1.04031
1.05388
1.06852
1.08005
1.09972
1.04928
1.06519
1.07919
1.09119
1.10326
1.11495
1.12609
1.13779
1.14545
1.16226
1.13488
1.14784
1.16165
1.17334
1.18391
1.19366
1.20243
1.21068
1.21425
1.22554
1.22426
1.23526
1.24873
1.25795
1.26538
1.27256
1.27976
1.28633
1.28733
1.29477
1.32271
1.32745
1.33549
1.33998
1.34325
1.34772
1.35372
1.36149
1.36531
1.3752
1.43603
1.42232
1.41488
1.40925
1.40658
1.40798
1.41449
1.4269
1.44165
1.4713
1.55692
1.5012
1.47034
1.45327
1.44513
1.44513
1.45381
1.47331
1.50533
1.57451
)
;

boundaryField
{
    wall-4
    {
        type            zeroGradient;
    }
    pressure-outlet-7
    {
        type            fixedValue;
        value           uniform 0;
    }
    velocity-inlet-6
    {
        type            zeroGradient;
    }
    velocity-inlet-5
    {
        type            zeroGradient;
    }
    frontAndBackPlanes
    {
        type            empty;
    }
}


// ************************************************************************* //
