/*--------------------------------*- C++ -*----------------------------------*\
| =========                 |                                                 |
| \\      /  F ield         | OpenFOAM: The Open Source CFD Toolbox           |
|  \\    /   O peration     | Version:  v2012                                 |
|   \\  /    A nd           | Website:  www.openfoam.com                      |
|    \\/     M anipulation  |                                                 |
\*---------------------------------------------------------------------------*/
FoamFile
{
    version     2.0;
    format      ascii;
    class       surfaceScalarField;
    location    "27";
    object      phi;
}
// * * * * * * * * * * * * * * * * * * * * * * * * * * * * * * * * * * * * * //

dimensions      [0 3 -1 0 0 0 0];
oriented        oriented;


internalField   nonuniform List<scalar> 
4262
(
0.107145
0.470844
0.0955887
0.705142
0.0694227
0.858469
0.0474725
1.02071
0.0311824
1.21481
0.0199963
1.44941
0.0125476
1.73331
0.00729391
2.07629
0.00330964
2.48923
-0.000285282
2.98589
-0.0038503
2.98586
-0.00782347
2.48922
-0.0130391
2.07625
-0.0204188
1.73324
-0.0314547
1.44926
-0.0476054
1.21467
-0.0694249
1.02058
-0.0955398
0.858418
-0.107177
0.705223
0.470811
0.112862
0.357981
0.135264
0.68274
0.120303
0.87343
0.0976302
1.04339
0.0742643
1.23817
0.0524833
1.47119
0.0341514
1.75164
0.0202132
2.09023
0.00920819
2.50023
-0.000870328
2.99597
-0.0109797
2.99597
-0.0218535
2.50009
-0.0355805
2.08998
-0.0537116
1.75137
-0.0754242
1.47097
-0.0988884
1.23813
-0.121771
1.04347
-0.13616
0.872806
-0.113252
0.682316
0.357559
0.0920323
0.265949
0.124973
0.649799
0.121147
0.877256
0.104813
1.05972
0.0859998
1.25699
0.0669329
1.49025
0.0482883
1.77029
0.0304422
2.10807
0.014093
2.51658
-0.00148129
3.01154
-0.0170184
3.0115
-0.0330517
2.51612
-0.0505818
2.10751
-0.0688217
1.76961
-0.0874456
1.48959
-0.10557
1.25626
-0.12091
1.05881
-0.125315
0.877211
-0.0922429
0.649244
0.265316
0.0639813
0.201968
0.104844
0.608936
0.106785
0.875315
0.0956649
1.07084
0.0818775
1.27077
0.0672126
1.50492
0.0510497
1.78645
0.0339202
2.1252
0.0163464
2.53416
-0.0023426
3.03023
-0.0207051
3.02987
-0.0377042
2.53312
-0.0542138
2.12402
-0.0699986
1.7854
-0.0842691
1.50386
-0.0978201
1.26981
-0.108916
1.0699
-0.106178
0.874473
-0.0645343
0.6076
0.200782
0.0373235
0.164644
0.0803218
0.565938
0.090516
0.865121
0.0835753
1.07778
0.0715372
1.28281
0.059841
1.51661
0.0468082
1.79948
0.0319393
2.14007
0.0154791
2.55062
-0.00298233
3.04869
-0.0212435
3.04813
-0.0373675
2.54925
-0.05184
2.13849
-0.0641346
1.79769
-0.0751496
1.51488
-0.0866532
1.28131
-0.0929868
1.07623
-0.0819048
0.863391
-0.0378979
0.563593
0.162884
0.0193059
0.145338
0.0568856
0.528358
0.0720625
0.849944
0.0698148
1.08003
0.0611593
1.29147
0.0508118
1.52696
0.0399518
1.81034
0.0276804
2.15234
0.0129734
2.56532
-0.00406874
3.06573
-0.0208567
3.06492
-0.0349038
2.56329
-0.0461224
2.14971
-0.0561284
1.8077
-0.0658102
1.52456
-0.0736692
1.28917
-0.0750684
1.07763
-0.0587389
0.847062
-0.0199123
0.524767
0.142972
0.0105842
0.134754
0.0421513
0.496791
0.0583525
0.833742
0.0585118
1.07987
0.0521739
1.2978
0.0428845
1.53625
0.0330089
1.82022
0.0222383
2.16311
0.00993518
2.57763
-0.00488074
3.08055
-0.0193113
3.07935
-0.0307715
2.57475
-0.0405982
2.15954
-0.0495358
1.81664
-0.0578406
1.53286
-0.0631453
1.29447
-0.0619359
1.07642
-0.0443354
0.829461
-0.0112798
0.491711
0.131692
0.00632673
0.128427
0.0318406
0.471277
0.0477265
0.817856
0.0493456
1.07825
0.0444808
1.30267
0.0364744
1.54426
0.027401
1.82929
0.017435
2.17308
0.0063337
2.58873
-0.00653542
3.09342
-0.018858
3.09167
-0.0288977
2.58479
-0.0375889
2.16823
-0.0449332
1.82398
-0.0515512
1.53948
-0.0551901
1.29811
-0.0522134
1.07345
-0.0344755
0.811723
-0.00713354
0.464369
0.124558
0.00411498
0.124312
0.0247683
0.450624
0.0399394
0.802685
0.0423321
1.07586
0.0383249
1.30668
0.0314774
1.55111
0.023389
1.83738
0.0141753
2.18229
0.00375329
2.59915
-0.00797985
3.10515
-0.0191329
3.10282
-0.0282238
2.59388
-0.0357116
2.17572
-0.042436
1.83071
-0.0479682
1.54501
-0.050243
1.30039
-0.0457714
1.06898
-0.0281936
0.794146
-0.00522117
0.441397
0.119337
0.00312269
0.12119
0.0196967
0.43405
0.0338892
0.788493
0.0369656
1.07278
0.0336515
1.30999
0.0273604
1.5574
0.0198797
1.84486
0.0109569
2.19122
0.000861219
2.60924
-0.0100563
3.11607
-0.0202467
3.11301
-0.0284831
2.60212
-0.0353035
2.18254
-0.0406434
1.83605
-0.0445344
1.54891
-0.0457881
1.30164
-0.0405345
1.06372
-0.0235684
0.77718
-0.00434965
0.422178
0.114987
0.00220217
0.118987
0.0141263
0.422126
0.0263777
0.776241
0.0294037
1.06976
0.0267201
1.31267
0.0217055
1.56241
0.0154152
1.85115
0.00756988
2.19906
-0.00179695
2.61861
-0.0123585
3.12663
-0.0220149
3.12267
-0.0293595
2.60947
-0.0347787
2.18795
-0.0384097
1.83968
-0.0410326
1.55153
-0.0412543
1.30186
-0.0351694
1.05764
-0.019133
0.761143
-0.0038237
0.406869
0.111164
0.00108415
0.117903
0.00854386
0.414666
0.0183904
0.766395
0.0210375
1.06711
0.0184684
1.31524
0.0139076
1.56697
0.00805791
1.857
0.00127843
2.20584
-0.00663433
2.62652
-0.0155103
3.13551
-0.0232043
3.13036
-0.0282803
2.61454
-0.0315494
2.19122
-0.0342709
1.8424
-0.0359
1.55316
-0.0350453
1.30101
-0.0285075
1.0511
-0.0143373
0.746973
-0.00311672
0.395648
0.108047
0.000127111
0.117776
0.00351703
0.411276
0.0104269
0.759485
0.0124888
1.06505
0.0100966
1.31764
0.00594503
1.57112
0.000684683
1.86226
-0.00539121
2.21192
-0.0119784
2.63311
-0.0188423
3.14237
-0.024287
3.13581
-0.0277247
2.61798
-0.0298992
2.1934
-0.0311984
1.8437
-0.0315225
1.55348
-0.029993
1.29948
-0.0230886
1.0442
-0.0106912
0.734576
-0.00245364
0.387411
0.105593
-0.0007085
0.118485
-0.000200084
0.410768
0.00434201
0.754943
0.00589182
1.0635
0.00351072
1.32002
-0.000788088
1.57542
-0.00613134
1.86761
-0.0120405
2.21783
-0.0182401
2.63931
-0.0242458
3.14838
-0.0285037
3.14006
-0.0305944
2.62007
-0.0311546
2.19396
-0.03056
1.8431
-0.0292483
1.55217
-0.0264568
1.29669
-0.0192929
1.03703
-0.00863844
0.723921
-0.00215743
0.38093
0.103436
-0.00159295
0.120078
-0.00295301
0.412128
-0.00170482
0.753695
-0.00144893
1.06324
-0.0039343
1.3225
-0.00780694
1.5793
-0.0126103
1.87241
-0.0180984
2.22332
-0.0240232
2.64524
-0.0296089
3.15396
-0.03294
3.1434
-0.0336627
2.62079
-0.0329818
2.19328
-0.0313416
1.84146
-0.0290728
1.5499
-0.0253316
1.29295
-0.0178172
1.02952
-0.00804759
0.714152
-0.00218366
0.375066
0.101252
-0.00249063
0.122568
-0.00601008
0.415648
-0.00737256
0.755057
-0.008273
1.06414
-0.0112376
1.32547
-0.0155263
1.58358
-0.0205109
1.87739
-0.0260367
2.22884
-0.0318243
2.65102
-0.0369324
3.15907
-0.0392518
3.14572
-0.0385216
2.62006
-0.0363764
2.19113
-0.0336239
1.83871
-0.0297899
1.54607
-0.0244406
1.2876
-0.0164611
1.02154
-0.00764423
0.705335
-0.00220987
0.369631
0.0990424
-0.00338139
0.12595
-0.00894322
0.421209
-0.0125261
0.75864
-0.0151778
1.06679
-0.0185496
1.32884
-0.0230244
1.58806
-0.02848
1.88285
-0.034604
2.23496
-0.0406998
2.65712
-0.0455755
3.16394
-0.0469721
3.14711
-0.0450784
2.61817
-0.0413587
2.18741
-0.0370314
1.83438
-0.0321356
1.54117
-0.0261104
1.28157
-0.0176062
1.01303
-0.00853556
0.696264
-0.00253084
0.363627
0.0965116
-0.00379316
0.129743
-0.0107137
0.42813
-0.0160474
0.763974
-0.0196062
1.07035
-0.0240191
1.33325
-0.0297898
1.59383
-0.0365931
1.88965
-0.0442151
2.24259
-0.0516994
2.6646
-0.0572623
3.16951
-0.0582258
3.14808
-0.0557595
2.6157
-0.0510834
2.18274
-0.045312
1.82861
-0.0382217
1.53408
-0.0298558
1.27321
-0.019788
1.00297
-0.0100844
0.68656
-0.00312166
0.356664
0.0933899
-0.00495398
0.134697
-0.0141725
0.437348
-0.022055
0.771856
-0.0269742
1.07527
-0.0315124
1.33779
-0.0377527
1.60007
-0.045917
1.89782
-0.0552987
2.25197
-0.0644511
2.67376
-0.07107
3.17613
-0.0721737
3.14918
-0.068961
2.61249
-0.0626626
2.17644
-0.0550075
1.82096
-0.0461216
1.52519
-0.0360361
1.26312
-0.024319
0.991249
-0.0127903
0.675032
-0.00397896
0.347853
0.089411
-0.00613746
0.140834
-0.0172421
0.448453
-0.0273346
0.781949
-0.0343256
1.08226
-0.0407894
1.34425
-0.0491109
1.60839
-0.059421
1.90813
-0.0707943
2.26334
-0.0816053
2.68457
-0.0887644
3.18329
-0.0891043
3.14952
-0.0843181
2.6077
-0.0766856
2.16881
-0.0672087
1.81148
-0.0558597
1.51385
-0.0426217
1.24988
-0.0283582
0.976985
-0.0151731
0.661847
-0.00480459
0.337484
0.0846064
-0.00827668
0.149111
-0.0232274
0.463404
-0.0367318
0.795453
-0.0460523
1.09158
-0.0541039
1.3523
-0.0642477
1.61853
-0.0766785
1.92056
-0.0901876
2.27685
-0.102189
2.69657
-0.109229
3.19033
-0.10853
3.14882
-0.101954
2.60113
-0.0916684
2.15852
-0.0790203
1.79883
-0.0650093
1.49983
-0.0497231
1.2346
-0.0337653
0.961027
-0.0183241
0.646406
-0.0057004
0.32486
0.078906
-0.0103091
0.15942
-0.0290592
0.482154
-0.0469424
0.813336
-0.0602504
1.10489
-0.0718722
1.36393
-0.0853456
1.63201
-0.100879
1.93609
-0.116492
2.29246
-0.129388
2.70947
-0.135735
3.19667
-0.132364
3.14545
-0.122344
2.59111
-0.109168
2.14534
-0.0939218
1.78359
-0.0771169
1.48303
-0.0588769
1.21636
-0.0398207
0.941971
-0.0216041
0.628189
-0.00670883
0.309965
0.0721971
-0.0149768
0.174397
-0.0404636
0.507641
-0.0633959
0.836269
-0.0808697
1.12236
-0.0965567
1.37961
-0.113973
1.64942
-0.132328
1.95445
-0.149555
2.30969
-0.162311
2.72222
-0.166321
3.20068
-0.159379
3.13851
-0.145941
2.57767
-0.128945
2.12835
-0.109808
1.76445
-0.0896565
1.46288
-0.0689014
1.1956
-0.047634
0.920704
-0.0261952
0.60675
-0.00794485
0.291715
0.0642523
-0.019087
0.193484
-0.0521497
0.540703
-0.0832478
0.867367
-0.107748
1.14687
-0.129941
1.40181
-0.152127
1.67161
-0.173582
1.9759
-0.191732
2.32784
-0.203141
2.73363
-0.203816
3.20136
-0.192183
3.12687
-0.173449
2.55894
-0.15199
2.10689
-0.129568
1.74203
-0.106696
1.44001
-0.0828546
1.17176
-0.0570648
0.894914
-0.0306584
0.580344
-0.00903976
0.270096
0.0552125
-0.033331
0.226815
-0.0784127
0.585785
-0.117799
0.906753
-0.148449
1.17752
-0.176565
1.42992
-0.203248
1.69829
-0.226547
1.9992
-0.24408
2.34537
-0.252519
2.74207
-0.24781
3.19665
-0.229303
3.10837
-0.205155
2.53479
-0.179093
2.08083
-0.152266
1.7152
-0.125292
1.41303
-0.0975393
1.14401
-0.0679086
0.865283
-0.0368642
0.549299
-0.0105063
0.243738
0.0447062
-0.0471205
0.273935
-0.115138
0.653803
-0.169106
0.960721
-0.20806
1.21647
-0.243038
1.4649
-0.271667
1.72692
-0.294047
2.02158
-0.307997
2.35932
-0.310287
2.74436
-0.297396
3.18376
-0.272029
3.083
-0.242157
2.50492
-0.210953
2.04962
-0.180483
1.68473
-0.150731
1.38328
-0.119255
1.11253
-0.0828334
0.828861
-0.0420064
0.508472
-0.0105093
0.212241
0.0341969
-0.0320904
0.306026
-0.0892041
0.710916
-0.139781
1.0113
-0.183863
1.26055
-0.225286
1.50632
-0.262351
1.76399
-0.296672
2.0559
-0.325501
2.38815
-0.345067
2.76392
-0.348903
3.18759
-0.331219
3.06532
-0.300148
2.47385
-0.262518
2.01199
-0.220983
1.64319
-0.177344
1.33964
-0.131298
1.06649
-0.0813125
0.778876
-0.035256
0.462416
-0.00767393
0.184659
0.026523
-0.00997194
0.315998
-0.0393107
0.740255
-0.0769746
1.04896
-0.114228
1.2978
-0.150456
1.54255
-0.184846
1.79838
-0.216123
2.08718
-0.241331
2.41336
-0.256157
2.77875
-0.253259
3.1847
-0.23074
3.0428
-0.19855
2.44166
-0.160973
1.97442
-0.121747
1.60397
-0.082699
1.30059
-0.0455993
1.02939
-0.015584
0.748861
0.000811059
0.446021
0.00272053
0.182749
0.0292435
0.00313682
0.312861
-0.0174448
0.760837
-0.0450107
1.07653
-0.0745946
1.32739
-0.10461
1.57257
-0.134202
1.82797
-0.161413
2.11439
-0.18307
2.43502
-0.195015
2.79069
-0.191465
3.18115
-0.171134
3.02247
-0.139788
2.41031
-0.103353
1.93798
-0.0666158
1.56723
-0.0327594
1.26674
-0.00471424
1.00134
0.0137572
0.730389
0.0160369
0.443741
0.00695829
0.191828
0.0362018
0.00314602
0.309715
-0.00751759
0.7715
-0.0279201
1.09693
-0.0523285
1.3518
-0.0773261
1.59756
-0.102336
1.85298
-0.125616
2.13767
-0.144271
2.45367
-0.154073
2.8005
-0.149456
3.17653
-0.127681
3.00069
-0.0979674
2.3806
-0.0676813
1.9077
-0.039207
1.53875
-0.0133355
1.24087
0.0075202
0.980485
0.0192549
0.718655
0.0178215
0.445174
0.00688371
0.202766
0.0430855
0.00546445
0.30425
-0.00192222
0.778887
-0.0196931
1.1147
-0.0402247
1.37233
-0.0614181
1.61876
-0.0830423
1.8746
-0.103438
2.15807
-0.120073
2.47031
-0.129063
2.80949
-0.125468
3.17293
-0.107917
2.98314
-0.0849436
2.35762
-0.0596312
1.88238
-0.0337873
1.51291
-0.00962179
1.2167
0.00924946
0.961614
0.0177483
0.710156
0.0143855
0.448537
0.00503065
0.212121
0.0481162
0.00595396
0.298296
0.000743649
0.784097
-0.0148593
1.1303
-0.0333639
1.39083
-0.0524188
1.63781
-0.0717411
1.89393
-0.0900822
2.17641
-0.105138
2.48536
-0.113339
2.81769
-0.10979
3.16938
-0.0939515
2.9673
-0.0721609
2.33583
-0.0479765
1.8582
-0.0249368
1.48987
-0.0063473
1.19811
0.00700358
0.948263
0.0133848
0.703775
0.0103786
0.451543
0.00342948
0.21907
0.0515456
0.00401168
0.294285
0.000281828
0.787827
-0.0132393
1.14383
-0.0299359
1.40753
-0.0475538
1.65543
-0.0653731
1.91175
-0.0824363
2.19347
-0.0968353
2.49976
-0.105597
2.82645
-0.104398
3.16819
-0.0910122
2.95392
-0.0712049
2.31602
-0.0513407
1.83833
-0.0338758
1.47241
-0.0167977
1.18103
-0.00303222
0.934497
0.00293148
0.697811
0.00368864
0.450786
0.0014446
0.221314
0.0529902
0.00264815
0.291636
-0.000511465
0.790987
-0.0127308
1.15604
-0.0284334
1.42323
-0.0452257
1.67222
-0.0620931
1.92861
-0.0784359
2.20981
-0.092669
2.514
-0.101778
2.83556
-0.101084
3.16749
-0.0882267
2.94106
-0.0714257
2.29922
-0.0536252
1.82053
-0.0346961
1.45348
-0.0199963
1.16633
-0.00983642
0.924338
-0.00409257
0.692067
-0.00321522
0.449909
-0.00103176
0.219131
0.0519585
-9.59422e-05
0.291732
-0.00326924
0.79416
-0.0138101
1.16659
-0.0283015
1.43772
-0.0442119
1.68813
-0.0605879
1.94499
-0.0767225
2.22595
-0.0911911
2.52846
-0.10132
2.84569
-0.103
3.16917
-0.0933811
2.93144
-0.0767683
2.28261
-0.0580634
1.80183
-0.042785
1.4382
-0.0296739
1.15322
-0.0193589
0.914023
-0.0120184
0.684727
-0.00632446
0.444215
-0.00197326
0.214779
0.0499852
-0.000567153
0.2923
-0.00534865
0.798942
-0.0155504
1.17679
-0.0288033
1.45098
-0.0439968
1.70333
-0.0600173
1.96101
-0.0761351
2.24206
-0.0909331
2.54326
-0.101716
2.85647
-0.104047
3.1715
-0.0952766
2.92267
-0.080958
2.26829
-0.0664014
1.78727
-0.0504045
1.4222
-0.035961
1.13878
-0.0235596
0.901621
-0.014804
0.675971
-0.0085543
0.437965
-0.00266942
0.208894
0.0473158
-0.00254429
0.294844
-0.00783584
0.804233
-0.0173653
1.18632
-0.0297604
1.46337
-0.044137
1.7177
-0.059779
1.97665
-0.0760157
2.2583
-0.0914656
2.55871
-0.104107
2.86911
-0.110759
3.17816
-0.105371
2.91728
-0.0904866
2.25341
-0.0722318
1.76902
-0.0572427
1.40721
-0.0428013
1.12434
-0.0316439
0.890464
-0.0211176
0.665445
-0.0104289
0.427277
-0.0032226
0.201688
0.0440932
-0.00387575
0.29872
-0.00928574
0.809643
-0.0185737
1.1956
-0.0305334
1.47533
-0.0444008
1.73157
-0.05973
1.99198
-0.0760865
2.27466
-0.092309
2.57493
-0.106232
2.88303
-0.112932
3.18486
-0.107512
2.91186
-0.0961521
2.24205
-0.0812558
1.75412
-0.0632072
1.38916
-0.0481807
1.10931
-0.0337987
0.876082
-0.0217035
0.65335
-0.0118686
0.417442
-0.00355365
0.193373
0.0405396
-0.00444066
0.30316
-0.0107202
0.815923
-0.0198793
1.20476
-0.0313562
1.48681
-0.0446418
1.74486
-0.0595964
2.00693
-0.0760181
2.29108
-0.092823
2.59174
-0.108113
2.89832
-0.118827
3.19557
-0.119266
2.9123
-0.106981
2.22976
-0.0879812
1.73512
-0.0708352
1.37202
-0.0548276
1.0933
-0.0416153
0.86287
-0.0281203
0.639855
-0.0135028
0.402824
-0.00385946
0.18373
0.0366801
-0.00445253
0.307613
-0.0110954
0.822566
-0.0202786
1.21395
-0.0315714
1.4981
-0.0446316
1.75792
-0.059377
2.02168
-0.0758321
2.30753
-0.0933835
2.60929
-0.11065
2.91559
-0.124175
3.20909
-0.125207
2.91333
-0.115306
2.21986
-0.100248
1.72006
-0.0795939
1.35136
-0.0604097
1.07412
-0.0423511
0.844811
-0.0268353
0.624339
-0.0139816
0.38997
-0.00380588
0.173554
0.0328742
-0.00449534
0.312108
-0.0116879
0.829758
-0.0207627
1.22302
-0.0317285
1.50907
-0.0444275
1.77062
-0.0589045
2.03616
-0.0753793
2.32401
-0.0934251
2.62734
-0.111482
2.93365
-0.126284
3.2239
-0.131432
2.91848
-0.124817
2.21325
-0.107133
1.70238
-0.0869966
1.33123
-0.0653944
1.05252
-0.0482312
0.827648
-0.0322228
0.60833
-0.0147824
0.37253
-0.00353489
0.162307
0.0293393
-0.00444629
0.316554
-0.011559
0.836871
-0.0204687
1.23193
-0.0312509
1.51985
-0.0438078
1.78317
-0.0581405
2.05049
-0.0745763
2.34045
-0.092876
2.64564
-0.112321
2.95309
-0.130528
3.2421
-0.139214
2.92717
-0.133063
2.2071
-0.118845
1.68816
-0.096314
1.3087
-0.0716441
1.02785
-0.0457325
0.801736
-0.0251238
0.587722
-0.0118756
0.359282
-0.00269116
0.153122
0.0266482
-0.0044929
0.321047
-0.0117407
0.844119
-0.020373
1.24056
-0.0307748
1.53025
-0.0429487
1.79535
-0.0569917
2.06453
-0.0733513
2.3568
-0.0920643
2.66435
-0.112537
2.97356
-0.132209
3.26178
-0.144266
2.93922
-0.143729
2.20656
-0.128198
1.67263
-0.104909
1.28541
-0.0762021
0.999139
-0.0494994
0.775033
-0.0251837
0.563406
-0.00834269
0.342441
-0.00248094
0.14726
0.0241672
-0.0043921
0.325439
-0.0113533
0.85108
-0.0197087
1.24892
-0.0298132
1.54036
-0.0417129
1.80725
-0.0555517
2.07837
-0.0718191
2.37307
-0.0906113
2.68314
-0.111487
2.99444
-0.133024
3.28331
-0.148207
2.95441
-0.149666
2.20802
-0.140303
1.66327
-0.117089
1.26219
-0.0845317
0.966582
-0.042381
0.732883
-0.00160166
0.522627
0.0205484
0.320291
0.0207585
0.14705
0.0449258
-0.00428892
0.329728
-0.011224
0.858015
-0.0192614
1.25696
-0.028925
1.55002
-0.0403518
1.81867
-0.0538019
2.09182
-0.0698152
2.38909
-0.0886821
2.70201
-0.110688
3.01645
-0.13482
3.30745
-0.152276
2.97186
-0.15955
2.21529
-0.14977
1.65349
-0.128341
1.24076
-0.0916157
0.929857
-0.0475455
0.688813
0.00612165
0.468959
0.0331298
0.293283
0.0149381
0.165242
0.0598639
-0.00405147
0.33378
-0.0106468
0.86461
-0.0183801
1.26469
-0.0276792
1.55932
-0.0387573
1.82975
-0.0518667
2.10493
-0.0676694
2.40489
-0.0865124
2.72085
-0.108532
3.03847
-0.13265
3.33156
-0.15267
2.99188
-0.162762
2.22538
-0.163915
1.65464
-0.146064
1.22291
-0.110875
0.894668
-0.0457337
0.623671
0.0549317
0.368294
0.157871
0.190343
0.170467
0.152646
0.230331
-0.00389942
0.337679
-0.0105035
0.871214
-0.0181277
1.27231
-0.027322
1.56851
-0.0384665
1.8409
-0.0519319
2.1184
-0.0685224
2.42148
-0.0888914
2.74122
-0.113979
3.06355
-0.144475
3.36206
-0.171744
3.01915
-0.188685
2.24233
-0.189253
1.65521
-0.175957
1.20962
-0.141645
0.860356
-0.101184
0.583211
-0.123177
0.390287
-0.365622
0.432788
-0.923669
0.710693
0.892635
-1.58597
-0.00367701
0.341356
-0.0099496
0.877487
-0.0173635
1.27973
-0.0263956
1.57754
-0.0374215
1.85192
-0.050937
2.13191
-0.0678983
2.43844
-0.0891006
2.76242
-0.115471
3.08992
-0.146975
3.39356
-0.17759
3.04977
-0.201518
2.26625
-0.223883
1.67757
-0.229002
1.21474
-0.225835
0.857189
-0.303686
0.661062
-0.68733
0.773931
-1.40425
1.14971
-2.01925
1.32569
1.2207
-2.34731
-0.00349114
0.344847
-0.00956862
0.883564
-0.0167167
1.28688
-0.0254751
1.5863
-0.0362968
1.86274
-0.0498096
2.14542
-0.0670081
2.45564
-0.088953
2.78437
-0.117438
3.11841
-0.155335
3.43146
-0.194858
3.08929
-0.227615
2.29901
-0.249041
1.699
-0.259421
1.22512
-0.347562
0.94533
-0.744371
1.05787
-1.5033
1.53286
-2.0877
1.73411
-2.3327
1.57068
1.33755
-2.44955
-0.00323122
0.348079
-0.00889273
0.889226
-0.0157594
1.29374
-0.0243024
1.59485
-0.034946
1.87339
-0.0484218
2.1589
-0.0658384
2.47306
-0.0884685
2.807
-0.118254
3.14819
-0.156806
3.47001
-0.198804
3.13129
-0.237785
2.33799
-0.282932
1.74415
-0.376589
1.31878
-0.697515
1.26626
-1.40909
1.76945
-2.00894
2.13271
-2.25357
1.97874
-2.36965
1.68677
1.40435
-2.43645
-0.00298797
0.351067
-0.00833528
0.894573
-0.014859
1.30027
-0.0230649
1.60305
-0.0335089
1.88383
-0.0469045
2.1723
-0.0644317
2.49058
-0.0876163
2.83018
-0.119117
3.17969
-0.163563
3.51446
-0.216831
3.18456
-0.270591
2.39175
-0.322274
1.79583
-0.494004
1.49051
-1.06827
1.84052
-1.7599
2.46109
-2.09495
2.46776
-2.24874
2.13252
-2.33341
1.77145
1.47086
-2.39993
-0.00285131
0.353918
-0.0079911
0.899713
-0.0144851
1.30676
-0.0227532
1.61132
-0.0334289
1.89451
-0.0470338
2.1859
-0.0650084
2.50856
-0.0890393
2.85421
-0.121922
3.21258
-0.167685
3.56022
-0.222112
3.23898
-0.276372
2.44601
-0.372702
1.89216
-0.745776
1.86358
-1.46355
2.55829
-1.95232
2.94985
-2.15703
2.67247
-2.26587
2.24136
-2.34366
1.84923
1.53606
-2.40885
-0.00288257
0.3568
-0.00833336
0.905164
-0.0151402
1.31357
-0.0237577
1.61994
-0.034877
1.90563
-0.049078
2.2001
-0.0678251
2.5273
-0.0929147
2.8793
-0.127728
3.24739
-0.178911
3.6114
-0.243202
3.30327
-0.315766
2.51858
-0.500094
2.07649
-1.02321
2.38669
-1.65275
3.18784
-1.94333
3.24043
-2.09439
2.82353
-2.21128
2.35825
-2.30636
1.94431
1.59997
-2.37027
-0.00284536
0.359646
-0.00840287
0.910721
-0.0156122
1.32078
-0.0247449
1.62907
-0.0363782
1.91726
-0.0511874
2.21491
-0.0707285
2.54685
-0.0970341
2.90561
-0.133464
3.28382
-0.185727
3.66367
-0.249465
3.36701
-0.337495
2.60661
-0.61005
2.34904
-1.23308
3.00973
-1.73762
3.69237
-1.94992
3.45274
-2.09565
2.96926
-2.22458
2.48718
-2.34046
2.06019
1.66116
-2.40166
-0.00273566
0.362381
-0.00868708
0.916673
-0.0162745
1.32836
-0.0258073
1.6386
-0.0379049
1.92936
-0.053354
2.23036
-0.073711
2.5672
-0.101016
2.93291
-0.139114
3.32192
-0.195728
3.72028
-0.270216
3.4415
-0.395711
2.7321
-0.759617
2.71295
-1.37994
3.63004
-1.74921
4.06164
-1.92947
3.633
-2.03872
3.07852
-2.1346
2.58306
-2.20751
2.1331
1.65595
-2.2023
-0.00258622
0.364968
-0.0085216
0.922608
-0.016564
1.33641
-0.0267034
1.64874
-0.0394089
1.94206
-0.0554993
2.24645
-0.0766184
2.58832
-0.105138
2.96143
-0.144948
3.36173
-0.201704
3.77704
-0.279712
3.51951
-0.441161
2.89355
-0.874619
3.14641
-1.43354
4.18897
-1.70877
4.33686
-1.87286
3.79709
-1.97256
3.17822
-1.98066
2.59116
-1.92221
2.07466
1.63717
-1.90343
-0.00229727
0.367265
-0.00862127
0.928932
-0.0169761
1.34476
-0.02742
1.65919
-0.0404546
1.9551
-0.0568976
2.26289
-0.0783633
2.60979
-0.106981
2.99005
-0.146626
3.40137
-0.204048
3.83446
-0.292174
3.60763
-0.489636
3.09101
-0.952017
3.60879
-1.40139
4.63835
-1.58078
4.51625
-1.6568
3.8731
-1.66825
3.18967
-1.52779
2.4507
-1.03416
1.58102
0.603011
-0.00179593
0.369061
-0.00795934
0.935096
-0.0168023
1.3536
-0.0280445
1.67043
-0.0420702
1.96912
-0.0596819
2.28051
-0.0827057
2.63281
-0.113728
3.02107
-0.157349
3.44499
-0.220172
3.89728
-0.318783
3.70624
-0.557956
3.33019
-1.07484
4.12567
-1.45338
5.01688
-1.56105
4.62393
-1.56841
3.88046
-1.47515
3.09641
-1.23562
2.21117
-0.654419
0.999822
-0.0514075
-0.00136543
0.370426
-0.00753348
0.941264
-0.0166376
1.36271
-0.0283571
1.68215
-0.043093
1.98386
-0.0618315
2.29924
-0.0865607
2.65754
-0.119949
3.05446
-0.166907
3.49195
-0.235431
3.96581
-0.35505
3.82586
-0.649959
3.62509
-1.19062
4.66633
-1.4756
5.30187
-1.54476
4.69309
-1.53073
3.86643
-1.32765
2.89333
-0.807502
1.69102
-0.123019
0.315339
-0.174427
-0.000545132
0.370971
-0.0059557
0.946674
-0.0154108
1.37216
-0.0279373
1.69467
-0.0435596
1.99948
-0.0633735
2.31906
-0.0895007
2.68367
-0.124962
3.08992
-0.175436
3.54243
-0.251619
4.04199
-0.389365
3.96361
-0.730584
3.96631
-1.26054
5.19629
-1.45648
5.49781
-1.49444
4.73105
-1.41438
3.78637
-1.11884
2.59779
-0.342757
0.914934
0.0360109
-0.0634293
-0.138416
0.000341128
0.37063
-0.00441028
0.951426
-0.013913
1.38167
-0.0268431
1.7076
-0.042909
2.01555
-0.0636609
2.33981
-0.091284
2.71129
-0.128877
3.12752
-0.181498
3.59505
-0.263468
4.12396
-0.42537
4.12551
-0.819706
4.36065
-1.30478
5.68136
-1.43393
5.62696
-1.44012
4.73724
-1.25085
3.5971
-0.732833
2.07977
-0.0709192
0.253021
0.0400981
-0.174447
-0.0983176
0.00234238
0.368288
-0.000617877
0.954386
-0.0107296
1.39178
-0.0243758
1.72125
-0.0410194
2.03219
-0.0625808
2.36137
-0.0911508
2.73986
-0.129892
3.16626
-0.184701
3.64985
-0.275173
4.21443
-0.457945
4.30828
-0.897985
4.80069
-1.29456
6.07794
-1.37167
5.70407
-1.34889
4.71446
-1.07369
3.3219
-0.37034
1.37642
-0.0214135
-0.0959061
0.00763868
-0.203499
-0.0906789
0.0038278
0.36446
0.00195691
0.956257
-0.00753424
1.40127
-0.0206363
1.73435
-0.037264
2.04882
-0.0593747
2.38348
-0.0887248
2.76921
-0.128456
3.20599
-0.184367
3.70577
-0.27885
4.30892
-0.47817
4.5076
-0.941849
5.26437
-1.24655
6.38264
-1.29765
5.75516
-1.19633
4.61315
-0.838603
2.96417
-0.137023
0.674838
0.0158457
-0.248775
0.00867385
-0.196327
-0.082005
0.00618199
0.358278
0.00624736
0.956191
-0.00143835
1.40895
-0.0144159
1.74733
-0.0313001
2.0657
-0.0535479
2.40573
-0.082744
2.79841
-0.122556
3.2458
-0.179169
3.76238
-0.279084
4.40883
-0.494313
4.72283
-0.954527
5.72458
-1.16937
6.59748
-1.18113
5.76692
-1.01378
4.4458
-0.537588
2.48798
-0.00941837
0.146669
0.0207516
-0.278945
0.0170803
-0.192656
-0.0649248
0.00883056
0.349448
0.0116272
0.953395
0.00568084
1.4149
-0.00573991
1.75875
-0.0225674
2.08253
-0.0445101
2.42767
-0.0730805
2.82698
-0.111635
3.28435
-0.166414
3.81716
-0.267688
4.5101
-0.487655
4.9428
-0.904756
6.14168
-1.05836
6.75108
-1.06931
5.77788
-0.837413
4.2139
-0.305281
1.95585
-0.0362851
-0.122328
-0.0172882
-0.297942
0.0027093
-0.212653
-0.0622155
0.0129645
0.336483
0.0199916
0.946368
0.0163482
1.41854
0.00604198
1.76906
-0.0103486
2.09892
-0.0304328
2.44776
-0.0569463
2.85349
-0.0935075
3.32092
-0.145169
3.86882
-0.243477
4.60841
-0.460717
5.16004
-0.819523
6.50049
-0.919614
6.85117
-0.908554
5.76682
-0.684514
3.98986
-0.161468
1.43281
-0.0488076
-0.234988
-0.0223917
-0.324358
0.00809715
-0.243142
-0.0541183
0.0176567
0.318826
0.0298271
0.934197
0.0294907
1.41888
0.0209183
1.77763
0.00700905
2.11283
-0.0106768
2.46544
-0.0352787
2.87809
-0.067622
3.35326
-0.113537
3.91473
-0.203936
4.69881
-0.400788
5.35689
-0.656647
6.75635
-0.733541
6.92806
-0.69464
5.72791
-0.439186
3.73441
-0.0111282
1.00475
-0.0327072
-0.213409
-0.0185518
-0.338513
0.0187516
-0.280445
-0.0353667
0.0238805
0.294946
0.0431656
0.914912
0.0474096
1.41464
0.0416335
1.78341
0.0308852
2.12358
0.0157159
2.48061
-0.00455907
2.89837
-0.0321892
3.38089
-0.0688815
3.95143
-0.134989
4.76492
-0.287764
5.50967
-0.462717
6.9313
-0.545602
7.01095
-0.608858
5.79117
-0.536328
3.66188
-0.368394
0.836813
-0.428093
-0.15371
-0.291111
-0.475495
-0.128057
-0.443499
-0.163424
0.0307671
0.264179
0.0590153
0.886664
0.0700022
1.40365
0.0689814
1.78443
0.0618638
2.1307
0.0504815
2.49199
0.0357329
2.91312
0.016759
3.39986
-0.0119243
3.98011
-0.0481888
4.80118
-0.127533
5.58901
-0.204517
7.00829
-0.278783
7.08521
-0.394036
5.90642
-0.535812
3.80365
-0.744438
1.04544
-0.776668
-0.12148
-0.576062
-0.676101
-0.280428
-0.739134
-0.443852
0.0388038
0.225375
0.0786649
0.846803
0.0979316
1.38438
0.102196
1.78016
0.099913
2.13298
0.0938626
2.49804
0.0865539
2.92042
0.0780723
3.40834
0.0709191
3.98726
0.0667777
4.80532
0.0986595
5.55713
0.133536
6.97341
0.132119
7.08663
0.0883697
5.95017
-0.078719
3.97074
-0.4756
1.44232
-0.686837
0.0897575
-0.63061
-0.732328
-0.320973
-1.04877
-0.764824
0.0463094
0.179066
0.101006
0.792106
0.132413
1.35298
0.144478
1.7681
0.148806
2.12865
0.148053
2.4988
0.149916
2.91856
0.15289
3.40537
0.168261
3.97189
0.20583
4.76776
0.340269
5.42269
0.630659
6.68302
0.884211
6.83308
1.18956
5.64483
1.12454
4.03576
0.575296
1.99156
0.15745
0.507604
-0.113376
-0.461503
-0.171221
-0.990925
-0.936045
0.0510203
0.128045
0.124222
0.718904
0.170748
1.30645
0.192823
1.74602
0.205308
2.11616
0.212075
2.49203
0.223044
2.90759
0.241071
3.38734
0.28059
3.93237
0.369462
4.67888
0.629709
5.16244
1.2188
6.09393
1.63645
6.41543
2.00075
5.28053
2.0451
3.99141
1.61631
2.42035
1.13848
0.985429
0.649281
0.0276982
0.233901
-0.575545
-0.702145
0.0479884
0.080057
0.147005
0.619888
0.216279
1.23718
0.251621
1.71068
0.272634
2.09515
0.287335
2.47733
0.308216
2.88671
0.340255
3.3553
0.396662
3.87597
0.531465
4.54408
0.847659
4.84625
1.56873
5.37286
1.98904
5.99511
2.26517
5.0044
2.33704
3.91955
2.00586
2.75153
1.46046
1.53083
0.910954
0.577202
0.409843
-0.0744342
-0.292302
0.0379132
0.0421437
0.165398
0.492403
0.262479
1.1401
0.31641
1.65675
0.348239
2.06332
0.371262
2.45431
0.399914
2.85806
0.438539
3.31668
0.500154
3.81435
0.64132
4.40292
0.935592
4.55198
1.57434
4.73411
1.9655
5.60395
2.16144
4.80846
2.18621
3.89478
1.96252
2.97522
1.49353
1.99982
0.955108
1.11563
0.398665
0.482008
0.106363
0.0294802
0.0126635
0.190971
0.330912
0.315524
1.01554
0.389357
1.58292
0.431496
2.02118
0.465202
2.4206
0.494052
2.82921
0.536453
3.27428
0.590639
3.76016
0.69879
4.29476
0.877161
4.37361
1.31903
4.29225
1.72515
5.19783
1.80085
4.73275
1.76088
3.93475
1.57977
3.15633
1.21283
2.36676
0.766052
1.5624
0.321931
0.926129
0.428294
0.0316464
-0.0189829
0.192549
0.170009
0.368946
0.839145
0.470556
1.48131
0.524009
1.96773
0.565835
2.37878
0.59494
2.80011
0.635749
3.23347
0.66415
3.73176
0.713688
4.24523
0.810777
4.27652
1.08245
4.02057
1.45643
4.82385
1.48365
4.70553
1.37984
4.03856
1.20443
3.33173
0.928567
2.64263
0.567913
1.92306
0.219929
1.27411
0.648224
0.0352978
-0.0542807
0.135742
0.0695649
0.319153
0.655735
0.441509
1.35895
0.501106
1.90813
0.530369
2.34951
0.540339
2.79014
0.542294
3.23151
0.527733
3.74632
0.513782
4.25918
0.510203
4.2801
0.598804
3.93197
0.774557
4.6481
0.78017
4.69992
0.698847
4.11989
0.592129
3.43845
0.454405
2.78035
0.277866
2.0996
0.104926
1.44705
0.753149
0.0186476
-0.0729283
0.041481
0.0467315
0.140877
0.556339
0.241538
1.25829
0.313216
1.83645
0.357712
2.30502
0.383909
2.76394
0.393577
3.22185
0.39728
3.74262
0.386768
4.26969
0.360866
4.306
0.387976
3.90486
0.505377
4.5307
0.511251
4.69405
0.455689
4.17545
0.368558
3.52558
0.263451
2.88546
0.140043
2.223
0.0343146
1.55278
0.787464
-0.00247663
-0.0704516
-0.0186309
0.0628858
0.013851
0.523857
0.0784684
1.19367
0.14204
1.77288
0.197415
2.24964
0.244054
2.7173
0.273111
3.19279
0.293746
3.72199
0.278847
4.28459
0.248924
4.33592
0.245888
3.9079
0.311494
4.46509
0.307559
4.69798
0.263762
4.21924
0.194926
3.59442
0.123021
2.95736
0.0554624
2.29056
-0.00819604
1.61644
0.779268
-0.0221739
-0.0482778
-0.0647868
0.105499
-0.0769418
0.536012
-0.0403379
1.15707
0.0161297
1.71641
0.0740948
2.19168
0.12879
2.66261
0.170637
3.15094
0.193803
3.69882
0.17502
4.30337
0.147437
4.3635
0.138885
3.91645
0.171163
4.43281
0.160172
4.70897
0.11937
4.26005
0.0744901
3.6393
0.0280273
3.00383
-0.0193377
2.33793
-0.0401262
1.63723
0.739141
-0.0349039
-0.0133739
-0.0946844
0.165279
-0.126389
0.567717
-0.107696
1.13838
-0.0587371
1.66746
-0.00510721
2.13805
0.0440574
2.61344
0.0812797
3.11372
0.0991948