/*--------------------------------*- C++ -*----------------------------------*\
| =========                 |                                                 |
| \\      /  F ield         | OpenFOAM: The Open Source CFD Toolbox           |
|  \\    /   O peration     | Version:  v2012                                 |
|   \\  /    A nd           | Website:  www.openfoam.com                      |
|    \\/     M anipulation  |                                                 |
\*---------------------------------------------------------------------------*/
FoamFile
{
    version     2.0;
    format      ascii;
    class       volVectorField;
    location    "27";
    object      U;
}
// * * * * * * * * * * * * * * * * * * * * * * * * * * * * * * * * * * * * * //

dimensions      [0 1 -1 0 0 0 0];


internalField   nonuniform List<vector> 
2200
(
(0.878841 -0.0304127 0)
(1.00577 -0.0512884 0)
(1.00321 -0.0354053 0)
(1.00017 -0.0244644 0)
(0.999803 -0.0167313 0)
(0.999947 -0.0108272 0)
(0.999985 -0.00693212 0)
(1.00005 -0.004255 0)
(1.00008 -0.00225815 0)
(1.00016 -0.000666002 0)
(1.00009 0.000900266 0)
(1.00007 0.00250542 0)
(1.00008 0.00447413 0)
(0.999971 0.00714936 0)
(0.99999 0.0109921 0)
(0.999803 0.0168047 0)
(1.00016 0.0245411 0)
(1.00335 0.0352925 0)
(1.00584 0.0513351 0)
(0.878914 0.0304029 0)
(0.711991 -0.0327617 0)
(0.99663 -0.0630059 0)
(1.03335 -0.0561482 0)
(1.02489 -0.0463506 0)
(1.01582 -0.0359919 0)
(1.00972 -0.0262318 0)
(1.00601 -0.0179562 0)
(1.00372 -0.0113536 0)
(1.00242 -0.00613846 0)
(1.00196 -0.00175175 0)
(1.00187 0.00252976 0)
(1.0024 0.00689705 0)
(1.00364 0.0120404 0)
(1.00598 0.0185042 0)
(1.00954 0.0267351 0)
(1.01567 0.0365187 0)
(1.02478 0.0468016 0)
(1.03307 0.0569631 0)
(0.996534 0.0631423 0)
(0.711706 0.0328857 0)
(0.535568 -0.0238868 0)
(0.96991 -0.0569313 0)
(1.05647 -0.0547152 0)
(1.05233 -0.0487932 0)
(1.03633 -0.0403773 0)
(1.02439 -0.0321131 0)
(1.01578 -0.0240231 0)
(1.01034 -0.0162274 0)
(1.00733 -0.0089876 0)
(1.00593 -0.00250106 0)
(1.00594 0.00377324 0)
(1.00723 0.0101925 0)
(1.01016 0.0172756 0)
(1.0154 0.0249376 0)
(1.02409 0.0328084 0)
(1.03613 0.0409569 0)
(1.05211 0.0492981 0)
(1.05635 0.0540426 0)
(0.969298 0.0574146 0)
(0.534715 0.0238828 0)
(0.392301 -0.0136413 0)
(0.911687 -0.0463698 0)
(1.05746 -0.046956 0)
(1.06964 -0.0444128 0)
(1.05512 -0.0383935 0)
(1.03939 -0.0317981 0)
(1.02737 -0.0249624 0)
(1.01882 -0.0177475 0)
(1.01347 -0.0102971 0)
(1.01099 -0.00277388 0)
(1.01088 0.00475113 0)
(1.01319 0.0120699 0)
(1.01839 0.019236 0)
(1.02696 0.0262158 0)
(1.03889 0.0329474 0)
(1.0545 0.039317 0)
(1.06882 0.0452784 0)
(1.05612 0.0478821 0)
(0.910376 0.0466926 0)
(0.390738 0.0137374 0)
(0.307931 -0.00447021 0)
(0.846886 -0.0322588 0)
(1.04922 -0.0397173 0)
(1.07908 -0.0379768 0)
(1.06792 -0.0335221 0)
(1.05171 -0.0281537 0)
(1.03833 -0.0227044 0)
(1.02805 -0.0166661 0)
(1.02088 -0.00986464 0)
(1.0171 -0.00249158 0)
(1.01688 0.00502283 0)
(1.02031 0.0122769 0)
(1.02733 0.0189134 0)
(1.0375 0.0247966 0)
(1.05067 0.0298043 0)
(1.06677 0.034935 0)
(1.0777 0.0391016 0)
(1.04763 0.0408501 0)
(0.84433 0.0326112 0)
(0.305369 0.00461544 0)
(0.264761 0.000133247 0)
(0.789478 -0.0199592 0)
(1.03345 -0.0312946 0)
(1.08313 -0.031785 0)
(1.07668 -0.0284801 0)
(1.06036 -0.023685 0)
(1.04718 -0.0195012 0)
(1.03649 -0.0145232 0)
(1.0287 -0.00858663 0)
(1.0243 -0.00175625 0)
(1.0241 0.00523061 0)
(1.02813 0.0118738 0)
(1.03556 0.0174549 0)
(1.04573 0.0219279 0)
(1.05882 0.0258668 0)
(1.07511 0.0303224 0)
(1.08122 0.0331985 0)
(1.03076 0.0325004 0)
(0.785287 0.0204083 0)
(0.261217 -2.4076e-08 0)
(0.240884 0.00104269 0)
(0.738699 -0.012203 0)
(1.01374 -0.0249627 0)
(1.08381 -0.026745 0)
(1.08247 -0.0243056 0)
(1.06717 -0.0201133 0)
(1.05382 -0.0162276 0)
(1.04319 -0.011946 0)
(1.03511 -0.00699187 0)
(1.03025 -0.00109089 0)
(1.02987 0.00527038 0)
(1.034 0.0108502 0)
(1.04151 0.0153965 0)
(1.05211 0.0192948 0)
(1.06522 0.0228276 0)
(1.08007 0.026526 0)
(1.08085 0.0285394 0)
(1.00946 0.0262944 0)
(0.732495 0.0127525 0)
(0.236218 -0.000903993 0)
(0.226868 0.000975377 0)
(0.696755 -0.00777094 0)
(0.993294 -0.0200915 0)
(1.08225 -0.0224924 0)
(1.08663 -0.0207134 0)
(1.07275 -0.0172699 0)
(1.05918 -0.0136071 0)
(1.04852 -0.00962072 0)
(1.0405 -0.00515548 0)
(1.03557 -1.44574e-05 0)
(1.03505 0.00562993 0)
(1.03909 0.0104162 0)
(1.04648 0.0142697 0)
(1.05648 0.0177242 0)
(1.06972 0.0205698 0)
(1.08328 0.0235161 0)
(1.0782 0.024793 0)
(0.987222 0.0217118 0)
(0.688274 0.00844306 0)
(0.22094 -0.000831816 0)
(0.217977 0.000746104 0)
(0.663015 -0.00519902 0)
(0.973493 -0.0165723 0)
(1.07895 -0.0191732 0)
(1.08927 -0.0178722 0)
(1.07704 -0.0150094 0)
(1.06354 -0.0117298 0)
(1.05302 -0.00799785 0)
(1.04535 -0.00381196 0)
(1.04071 0.000911306 0)
(1.04006 0.00592427 0)
(1.0435 0.0101708 0)
(1.05031 0.0137927 0)
(1.05998 0.0166133 0)
(1.07323 0.0195421 0)
(1.08471 0.0217726 0)
(1.07299 0.0222109 0)
(0.964441 0.0186466 0)
(0.651232 0.00610649 0)
(0.210319 -0.000544824 0)
(0.211673 0.000374665 0)
(0.635601 -0.00364774 0)
(0.954761 -0.0138375 0)
(1.07524 -0.0166205 0)
(1.09148 -0.0157222 0)
(1.08066 -0.0132861 0)
(1.06695 -0.0101924 0)
(1.05643 -0.00655706 0)
(1.04888 -0.00241133 0)
(1.04438 0.00210617 0)
(1.0434 0.00648268 0)
(1.04624 0.0104541 0)
(1.05248 0.0136553 0)
(1.0625 0.0164565 0)
(1.07558 0.0185365 0)
(1.08524 0.0199417 0)
(1.0673 0.0200451 0)
(0.943287 0.0162357 0)
(0.620757 0.00465664 0)
(0.202153 -0.000151982 0)
(0.20728 0.000125474 0)
(0.615557 -0.00216825 0)
(0.939509 -0.0105935 0)
(1.07244 -0.0132375 0)
(1.09392 -0.0124902 0)
(1.08431 -0.0105972 0)
(1.07031 -0.0081297 0)
(1.05934 -0.00498264 0)
(1.05138 -0.00118085 0)
(1.0465 0.00321142 0)
(1.04522 0.00734311 0)
(1.04796 0.0110912 0)
(1.05427 0.0139154 0)
(1.06398 0.0160414 0)
(1.07719 0.0171789 0)
(1.08576 0.0181862 0)
(1.06159 0.0179112 0)
(0.923187 0.0136787 0)
(0.595684 0.00350699 0)
(0.195098 0.000190509 0)
(0.204498 -8.25537e-06 0)
(0.601767 -0.000896299 0)
(0.925825 -0.00715662 0)
(1.06965 -0.00954563 0)
(1.09645 -0.00889226 0)
(1.08795 -0.00708265 0)
(1.07407 -0.00475908 0)
(1.06284 -0.0019889 0)
(1.05424 0.0011353 0)
(1.04859 0.00487705 0)
(1.04704 0.00840954 0)
(1.04999 0.0112301 0)
(1.05667 0.0130619 0)
(1.06646 0.0141352 0)
(1.07934 0.015356 0)
(1.08595 0.0157941 0)
(1.05576 0.0149422 0)
(0.905561 0.0106609 0)
(0.577407 0.00248497 0)
(0.189407 0.00033152 0)
(0.203624 -0.000127276 0)
(0.594082 8.54818e-05 0)
(0.91624 -0.00365395 0)
(1.0677 -0.0058308 0)
(1.09889 -0.00520973 0)
(1.0916 -0.0035016 0)
(1.0783 -0.00139616 0)
(1.06734 0.00103466 0)
(1.05868 0.00375295 0)
(1.05269 0.00669921 0)
(1.05068 0.0094558 0)
(1.05303 0.0112928 0)
(1.05901 0.0124179 0)
(1.06829 0.0133195 0)
(1.08044 0.0136418 0)
(1.08531 0.0137435 0)
(1.04924 0.0125288 0)
(0.889537 0.0081409 0)
(0.563609 0.00182695 0)
(0.184613 0.00035141 0)
(0.204144 -9.16651e-05 0)
(0.592116 0.000953227 0)
(0.9094 -0.00103467 0)
(1.0659 -0.00294741 0)
(1.10116 -0.00234847 0)
(1.09487 -0.000603185 0)
(1.0818 0.00152266 0)
(1.07089 0.0039614 0)
(1.06233 0.00662885 0)
(1.05623 0.00919653 0)
(1.05358 0.0115652 0)
(1.0549 0.0128074 0)
(1.0599 0.0133743 0)
(1.0683 0.013544 0)
(1.07987 0.0129472 0)
(1.08309 0.0124112 0)
(1.04165 0.0107645 0)
(0.875543 0.00644568 0)
(0.55349 0.0016092 0)
(0.180789 0.000358124 0)
(0.206242 0.000280687 0)
(0.592828 0.0013654 0)
(0.90554 0.00108473 0)
(1.06489 0.000198447 0)
(1.10282 0.000985892 0)
(1.09722 0.00248472 0)
(1.08397 0.00437824 0)
(1.0727 0.00661325 0)
(1.06378 0.00918919 0)
(1.0573 0.0116147 0)
(1.05409 0.013708 0)
(1.05491 0.0144741 0)
(1.05954 0.0145382 0)
(1.06768 0.014074 0)
(1.07865 0.0130049 0)
(1.08063 0.012118 0)
(1.03476 0.0101081 0)
(0.863746 0.00571067 0)
(0.544739 0.0016855 0)
(0.177028 0.000385349 0)
(0.209479 0.000475287 0)
(0.595736 0.00199295 0)
(0.905865 0.00327502 0)
(1.06482 0.00288671 0)
(1.10488 0.00407582 0)
(1.0997 0.0057816 0)
(1.08626 0.00772065 0)
(1.07445 0.0100263 0)
(1.06489 0.0125348 0)
(1.05764 0.0149145 0)
(1.0536 0.016663 0)
(1.05369 0.0169783 0)
(1.05804 0.0163512 0)
(1.066 0.0152144 0)
(1.07614 0.0137743 0)
(1.07627 0.0120957 0)
(1.02629 0.00931988 0)
(0.852097 0.00514293 0)
(0.536699 0.00175772 0)
(0.17334 0.000388653 0)
(0.215203 0.00058262 0)
(0.603623 0.00280485 0)
(0.90926 0.00489923 0)
(1.067 0.0058298 0)
(1.10761 0.00717016 0)
(1.10296 0.00890909 0)
(1.08964 0.0110397 0)
(1.07773 0.0136285 0)
(1.06767 0.0162625 0)
(1.05945 0.0187585 0)
(1.05419 0.0202032 0)
(1.05302 0.0201034 0)
(1.05646 0.0188595 0)
(1.06369 0.0169977 0)
(1.07299 0.0149893 0)
(1.07178 0.0128888 0)
(1.01888 0.00981191 0)
(0.842436 0.00556437 0)
(0.528891 0.00208345 0)
(0.169317 0.000424091 0)
(0.220587 0.000638597 0)
(0.611049 0.00317287 0)
(0.913869 0.00614549 0)
(1.06991 0.00754808 0)
(1.11118 0.00927947 0)
(1.10696 0.0115829 0)
(1.09374 0.0142476 0)
(1.08177 0.0174561 0)
(1.07132 0.0207362 0)
(1.0623 0.0237714 0)
(1.05571 0.0251625 0)
(1.05302 0.0248559 0)
(1.0549 0.0232386 0)
(1.06098 0.0209943 0)
(1.069 0.0182458 0)
(1.06558 0.0149838 0)
(1.00865 0.0109136 0)
(0.829882 0.00634584 0)
(0.519111 0.00260648 0)
(0.164378 0.000513843 0)
(0.228965 0.000838206 0)
(0.624688 0.00411166 0)
(0.923261 0.00828741 0)
(1.07473 0.0106381 0)
(1.11517 0.0124636 0)
(1.11133 0.0147681 0)
(1.09813 0.0179137 0)
(1.08581 0.0218537 0)
(1.07452 0.0258991 0)
(1.06412 0.0295884 0)
(1.05566 0.0311847 0)
(1.05164 0.0308148 0)
(1.05216 0.0287146 0)
(1.05712 0.0255662 0)
(1.06342 0.022113 0)
(1.05827 0.0179652 0)
(0.999046 0.0132195 0)
(0.819211 0.00799901 0)
(0.508747 0.00334336 0)
(0.15845 0.000638214 0)
(0.237661 0.0011344 0)
(0.637542 0.00496331 0)
(0.933091 0.0101068 0)
(1.08052 0.0133883 0)
(1.11973 0.0160712 0)
(1.11623 0.0191897 0)
(1.10317 0.023326 0)
(1.09036 0.028073 0)
(1.07796 0.0329824 0)
(1.06596 0.0372184 0)
(1.05585 0.0387802 0)
(1.0501 0.0378001 0)
(1.04874 0.0350747 0)
(1.0521 0.0312677 0)
(1.05634 0.027068 0)
(1.04816 0.0214897 0)
(0.98462 0.0154479 0)
(0.801853 0.00934887 0)
(0.493613 0.00403845 0)
(0.150566 0.000767928 0)
(0.250757 0.00145283 0)
(0.657481 0.00679013 0)
(0.947893 0.0134879 0)
(1.08862 0.0181088 0)
(1.12558 0.0213782 0)
(1.12266 0.0253672 0)
(1.10982 0.0302004 0)
(1.0963 0.0360125 0)
(1.08234 0.0417043 0)
(1.06791 0.0461311 0)
(1.05502 0.047462 0)
(1.04703 0.0459026 0)
(1.04417 0.0422725 0)
(1.04561 0.0371338 0)
(1.04755 0.0315172 0)
(1.03661 0.0249397 0)
(0.971122 0.0181067 0)
(0.788092 0.0113441 0)
(0.479172 0.00485086 0)
(0.142041 0.000870132 0)
(0.266199 0.00197939 0)
(0.681043 0.00823737 0)
(0.966564 0.0171219 0)
(1.10029 0.023352 0)
(1.13426 0.0284345 0)
(1.13104 0.0335973 0)
(1.1178 0.0400934 0)
(1.10316 0.0469457 0)
(1.08729 0.0533447 0)
(1.07044 0.0578479 0)
(1.05524 0.0585836 0)
(1.04482 0.0555139 0)
(1.039 0.0503866 0)
(1.0377 0.0442381 0)
(1.03684 0.0372956 0)
(1.02221 0.029607 0)
(0.951878 0.0214122 0)
(0.763959 0.0133486 0)
(0.456751 0.00572105 0)
(0.130637 0.00102171 0)
(0.287855 0.00280681 0)
(0.712928 0.0120611 0)
(0.991425 0.0230433 0)
(1.1155 0.0316249 0)
(1.14499 0.0378484 0)
(1.14135 0.0453283 0)
(1.1273 0.0530479 0)
(1.11087 0.0609147 0)
(1.09233 0.0677949 0)
(1.07201 0.0717413 0)
(1.05286 0.0711182 0)
(1.03925 0.0665067 0)
(1.03173 0.0599043 0)
(1.02814 0.0519716 0)
(1.02436 0.0434455 0)
(1.00659 0.0343602 0)
(0.933769 0.0252205 0)
(0.745272 0.0162386 0)
(0.436821 0.00691671 0)
(0.119055 0.00111131 0)
(0.318078 0.00385924 0)
(0.755842 0.0149228 0)
(1.02357 0.0303396 0)
(1.13623 0.0415061 0)
(1.16079 0.0510831 0)
(1.15453 0.0607601 0)
(1.13812 0.0702723 0)
(1.11873 0.0791825 0)
(1.09679 0.0859189 0)
(1.07288 0.088837 0)
(1.05074 0.0865294 0)
(1.03434 0.0797959 0)
(1.02298 0.0707689 0)
(1.01609 0.0612326 0)
(1.00954 0.0512586 0)
(0.987978 0.0411612 0)
(0.90892 0.0304293 0)
(0.711441 0.0193185 0)
(0.403393 0.00788841 0)
(0.102959 0.00125339 0)
(0.354627 0.0077208 0)
(0.809067 0.0246324 0)
(1.06499 0.0428864 0)
(1.16315 0.058168 0)
(1.17978 0.0693509 0)
(1.17002 0.0821761 0)
(1.14993 0.0931294 0)
(1.1267 0.102197 0)
(1.1005 0.108185 0)
(1.07195 0.10939 0)
(1.04495 0.104444 0)
(1.02451 0.0946553 0)
(1.01172 0.0836844 0)
(1.00281 0.0720427 0)
(0.992988 0.0602867 0)
(0.967413 0.0482465 0)
(0.883477 0.0359219 0)
(0.684138 0.0230902 0)
(0.376671 0.0095776 0)
(0.0885493 0.00117326 0)
(0.4376 0.0113986 0)
(0.890239 0.0349371 0)
(1.11958 0.062647 0)
(1.19613 0.0817918 0)
(1.20468 0.0964118 1.8341e-34)
(1.18781 0.112173 -9.56546e-35)
(1.16238 0.122916 0)
(1.13411 0.13114 0)
(1.10285 0.135228 0)
(1.06959 0.13339 0)
(1.03892 0.124827 0)
(1.01573 0.112575 0)
(0.998528 0.098717 0)
(0.985961 0.085163 0)
(0.973533 0.0718598 0)
(0.943283 0.0586854 0)
(0.850363 0.0441127 0)
(0.636146 0.0280557 0)
(0.326218 0.00994515 0)
(0.066223 0.00090546 0)
(0.506023 0.0263586 3.47241e-21)
(0.983207 0.0591451 -3.12229e-21)
(1.17841 0.0950944 0)
(1.23181 0.117532 6.16725e-21)
(1.23062 0.135752 -4.99705e-21)
(1.20529 0.151173 1.00921e-34)
(1.1739 0.160711 0)
(1.13978 0.167228 7.01899e-21)
(1.10282 0.168843 -2.42261e-20)
(1.06393 0.163995 5.17597e-21)
(1.02785 0.152428 0)
(0.999548 0.135925 -1.54261e-20)
(0.980356 0.119544 -1.90144e-20)
(0.96553 0.103657 3.33696e-20)
(0.947805 0.0883536 -2.66812e-20)
(0.908979 0.0722312 0)
(0.801992 0.0543369 -1.00545e-20)
(0.573895 0.0338566 0)
(0.274819 0.0136189 -5.45929e-20)
(0.0482838 0.00150845 6.45555e-20)
(0.537234 0.054705 -1.15825e-21)
(1.03886 0.102157 -1.44223e-20)
(1.22328 0.146361 8.23272e-21)
(1.26419 0.165838 3.6608e-22)
(1.25411 0.184233 -9.99322e-21)
(1.22074 0.197592 1.68733e-20)
(1.1831 0.205284 0)
(1.14278 0.209879 0)
(1.09991 0.208903 3.82319e-20)
(1.05507 0.200777 0)
(1.01298 0.184919 5.39781e-20)
(0.979961 0.166387 1.65505e-20)
(0.954475 0.148543 3.30583e-22)
(0.93356 0.131436 -3.71592e-20)
(0.912918 0.115178 0)
(0.870813 0.0989874 0)
(0.760884 0.0760277 -1.68107e-19)
(0.540142 0.051107 4.21118e-19)
(0.261095 0.0215224 -2.50011e-19)
(0.0456013 0.00459604 -2.95973e-19)
(0.541371 0.0778392 5.01857e-20)
(1.06985 0.159523 -1.36847e-20)
(1.25669 0.207959 -2.32819e-21)
(1.29019 0.225106 -3.13642e-21)
(1.2724 0.240916 1.38143e-20)
(1.2325 0.250263 -3.99613e-20)
(1.18905 0.254607 1.68635e-20)
(1.14285 0.256112 0)
(1.09415 0.251758 -7.99804e-20)
(1.04317 0.240502 8.13452e-20)
(0.996175 0.222509 -1.46968e-19)
(0.959342 0.20262 7.07414e-20)
(0.931532 0.182665 -5.00936e-20)
(0.909 0.164185 1.10611e-19)
(0.883313 0.146655 0)
(0.837844 0.128843 -4.25733e-20)
(0.731785 0.105235 0)
(0.527912 0.0705614 2.39192e-19)
(0.264942 0.0359067 -5.67747e-19)
(0.0554559 0.00723518 3.56036e-19)
(0.531004 0.110009 -2.62764e-19)
(1.08468 0.217465 1.03652e-19)
(1.27656 0.273961 1.60416e-20)
(1.30767 0.289462 0)
(1.28467 0.302235 -2.97882e-21)
(1.23987 0.306835 5.89178e-21)
(1.19151 0.30712 -1.79771e-20)
(1.14017 0.304837 0)
(1.08629 0.296724 5.66233e-20)
(1.03003 0.281668 -5.63534e-20)
(0.977531 0.260121 1.2885e-19)
(0.934379 0.235796 0)
(0.900884 0.214526 -1.05894e-19)
(0.873431 0.196189 5.86916e-20)
(0.849466 0.179777 1.56228e-19)
(0.808747 0.162871 -1.37505e-19)
(0.711498 0.136668 2.24951e-19)
(0.523978 0.0968618 -4.9888e-19)
(0.279168 0.052224 3.16048e-19)
(0.0676347 0.0129256 -3.95866e-19)
(0.516202 0.134223 1.71695e-19)
(1.08945 0.272561 -1.26786e-19)
(1.28685 0.340948 4.95657e-20)
(1.31683 0.354974 -6.15632e-20)
(1.29017 0.364808 3.57488e-20)
(1.24205 0.36491 -2.36189e-21)
(1.18989 0.361241 3.64649e-21)
(1.13423 0.355024 -4.87584e-20)
(1.07557 0.343 -5.78588e-20)
(1.01444 0.324306 -1.21384e-19)
(0.957749 0.299634 -2.77839e-19)
(0.913729 0.274965 -9.09148e-20)
(0.881264 0.254076 2.56911e-21)
(0.855773 0.235409 -2.0873e-19)
(0.826387 0.216991 -6.34493e-21)
(0.782572 0.196201 2.01602e-19)
(0.690739 0.167177 -6.22495e-20)
(0.519388 0.123094 -3.6233e-20)
(0.290196 0.0699493 0)
(0.0768033 0.0189654 8.48246e-19)
(0.497225 0.155141 0)
(1.08085 0.322375 4.12497e-20)
(1.28852 0.404567 0)
(1.3195 0.418774 -1.23119e-20)
(1.29036 0.426684 -4.83697e-20)
(1.23984 0.422787 -1.4766e-21)
(1.18473 0.415483 1.66783e-20)
(1.12577 0.405345 8.3443e-20)
(1.06369 0.389288 -3.3721e-20)
(0.999122 0.366614 5.56636e-20)
(0.938857 0.337854 1.49767e-19)
(0.88995 0.31006 2.00428e-19)
(0.85143 0.285215 -1.23924e-19)
(0.819913 0.263663 2.26541e-19)
(0.796775 0.245601 -1.81247e-19)
(0.761723 0.228697 0)
(0.68033 0.198746 -4.75643e-19)
(0.520861 0.150359 6.39642e-19)
(0.299189 0.0876596 4.81845e-20)
(0.0832023 0.024783 -8.99408e-19)
(0.482583 0.175942 -5.34652e-21)
(1.07237 0.371515 -1.13891e-19)
(1.28569 0.465958 -3.18398e-19)
(1.31734 0.48039 1.66223e-19)
(1.2861 0.486638 -2.41846e-20)
(1.2338 0.479263 6.25655e-21)
(1.17649 0.468705 2.29511e-20)
(1.11503 0.454931 -1.65081e-20)
(1.04991 0.435239 -1.25555e-19)
(0.981498 0.40892 4.73582e-22)
(0.918016 0.377448 -1.63431e-19)
(0.86838 0.346965 -2.14454e-19)
(0.833196 0.321528 1.38679e-19)
(0.808129 0.301929 -8.15168e-20)
(0.778818 0.283577 1.9728e-19)
(0.738624 0.259982 0)
(0.659595 0.228478 -2.95191e-19)
(0.511399 0.175463 4.36424e-19)
(0.3014 0.103524 8.32869e-19)
(0.0860578 0.0300103 -9.79502e-19)
(0.467543 0.193512 -5.57056e-19)
(1.05822 0.415973 2.80204e-19)
(1.27868 0.523509 2.06144e-19)
(1.31154 0.53902 -1.81413e-19)
(1.27861 0.544262 1.12573e-20)
(1.22504 0.533821 2.81824e-20)
(1.16604 0.520315 -1.89515e-20)
(1.1025 0.503201 -3.15837e-20)
(1.03481 0.48009 -7.48313e-20)
(0.963696 0.449901 1.26173e-19)
(0.897898 0.414179 1.57993e-19)
(0.8467 0.380153 3.37543e-19)
(0.807595 0.35285 0)
(0.774035 0.32872 5.67773e-21)
(0.751099 0.307598 -5.46619e-19)
(0.719595 0.289975 1.26051e-19)
(0.648803 0.256648 6.35272e-19)
(0.504606 0.199364 -1.86872e-19)
(0.295704 0.117971 3.94514e-19)
(0.0849852 0.0329161 -3.30586e-20)
(0.458429 0.21257 6.10902e-21)
(1.04686 0.459914 2.64204e-19)
(1.26967 0.57872 1.59721e-19)
(1.30308 0.595017 -3.36692e-19)
(1.26856 0.599068 1.95561e-19)
(1.21405 0.585884 -4.21475e-20)
(1.15371 0.569871 1.68401e-20)
(1.08847 0.549815 8.17948e-20)
(1.01869 0.523659 1.39414e-19)
(0.945293 0.490421 -1.55802e-19)
(0.877245 0.451643 0)
(0.82449 0.415324 -1.31372e-19)
(0.786279 0.384819 1.50827e-19)
(0.762005 0.360976 1.99193e-19)
(0.733664 0.340877 -1.14497e-19)
(0.696558 0.3154 -2.86714e-19)
(0.626175 0.281203 -8.67158e-20)
(0.489896 0.217293 -1.22728e-21)
(0.285985 0.127566 0)
(0.0811552 0.0352202 0)
(0.449921 0.228119 -2.84212e-19)
(1.03353 0.500044 0)
(1.25845 0.630138 1.8656e-19)
(1.29247 0.647899 -8.84844e-20)
(1.2567 0.65104 -2.00515e-19)
(1.20157 0.635371 5.61111e-20)
(1.14019 0.617145 1.2098e-20)
(1.07364 0.594508 -4.84391e-20)
(1.00222 0.565524 9.54213e-20)
(0.92711 0.528737 -5.93155e-20)
(0.857228 0.485528 8.92383e-20)
(0.802215 0.445813 4.12085e-19)
(0.762712 0.413503 1.35274e-20)
(0.727337 0.385775 -2.04505e-19)
(0.705794 0.362671 3.90515e-19)
(0.677817 0.341562 4.49954e-21)
(0.613118 0.302111 9.27755e-20)
(0.477047 0.234761 -4.4794e-19)
(0.274998 0.134608 4.54887e-19)
(0.0759966 0.0368252 -5.42615e-19)
(0.443621 0.247111 3.78716e-23)
(1.0221 0.539405 0)
(1.24669 0.679308 0)
(1.2806 0.698292 7.99717e-20)
(1.24371 0.700192 8.20189e-20)
(1.1881 0.682109 -4.02303e-20)
(1.12584 0.661976 -6.6507e-22)
(1.05817 0.637088 0)
(0.985067 0.60571 -1.48417e-19)
(0.906986 0.566437 2.26878e-19)
(0.833315 0.521811 2.65869e-19)
(0.777424 0.478202 -1.54175e-19)
(0.73805 0.441523 -1.91222e-19)
(0.714238 0.414406 4.51046e-19)
(0.68687 0.39012 -1.38271e-19)
(0.652626 0.360059 -1.67201e-19)
(0.587601 0.321408 -1.01723e-19)
(0.457563 0.246025 -4.84918e-19)
(0.261702 0.139502 6.89642e-20)
(0.0700492 0.0371975 5.88357e-19)
(0.439882 0.265768 -1.15105e-19)
(1.01046 0.575635 -1.80214e-19)
(1.23376 0.724771 2.35451e-20)
(1.26779 0.745501 7.98518e-24)
(1.23012 0.746562 1.95412e-20)
(1.17413 0.726379 -1.2229e-19)
(1.11108 0.70447 0)
(1.04236 0.677611 3.2498e-20)
(0.967833 0.644249 -2.56252e-20)
(0.88859 0.602661 3.65266e-19)
(0.815024 0.552649 -6.45596e-20)
(0.756826 0.505298 7.23116e-20)
(0.714021 0.468156 0)
(0.679296 0.433865 -2.45634e-19)
(0.658364 0.405479 3.03622e-19)
(0.63289 0.382374 0)
(0.571659 0.334693 -2.21652e-19)
(0.439627 0.2572 6.49254e-19)
(0.247496 0.142363 7.6917e-20)
(0.0636898 0.0366623 -7.27418e-19)
(0.437932 0.282708 -2.58021e-19)
(1.00077 0.61107 3.31334e-19)
(1.22113 0.768271 0)
(1.25465 0.790398 2.03219e-19)
(1.21622 0.790384 0)
(1.15993 0.76814 1.06488e-19)
(1.09618 0.744624 0)
(1.02661 0.716026 0)
(0.95082 0.680742 -4.86602e-20)
(0.868868 0.636584 -3.52706e-19)
(0.789723 0.584844 -4.93645e-19)
(0.728753 0.536192 8.93275e-20)
(0.688475 0.491655 3.30332e-19)
(0.664772 0.458931 2.74607e-19)
(0.639046 0.430712 -9.74259e-19)
(0.60599 0.394905 -3.99693e-19)
(0.54337 0.349647 2.32778e-19)
(0.416701 0.262654 0)
(0.231891 0.143255 6.65065e-19)
(0.0569853 0.0352274 -7.8762e-19)
(0.436519 0.298487 2.86506e-19)
(0.990518 0.643272 -3.6591e-19)
(1.20807 0.807988 0)
(1.24133 0.83202 -1.03625e-20)
(1.20236 0.831494 -8.24384e-20)
(1.14578 0.807646 0)
(1.08141 0.78268 -3.30132e-22)
(1.01088 0.752401 3.11313e-20)
(0.933251 0.715659 -7.45474e-20)
(0.848852 0.670282 3.92914e-20)
(0.768983 0.617212 0)
(0.707684 0.562437 3.60829e-19)
(0.66396 0.51763 4.19648e-21)
(0.6274 0.476537 1.48887e-19)
(0.607695 0.441302 1.78723e-19)
(0.584331 0.412796 0)
(0.525077 0.356113 -3.89436e-19)
(0.396632 0.267826 7.637e-19)
(0.21566 0.142154 -8.11155e-19)
(0.0505113 0.0330172 1.70537e-18)
(0.435449 0.31348 0)
(0.98196 0.675214 0)
(1.19572 0.846158 -1.99773e-19)
(1.2281 0.871557 0)
(1.18852 0.870253 0)
(1.13178 0.844847 1.71309e-19)
(1.06687 0.818601 -3.09309e-21)
(0.995564 0.786965 1.71404e-20)
(0.917141 0.749171 -1.15793e-20)
(0.832171 0.702254 0)
(0.749694 0.645675 -7.7912e-20)
(0.682865 0.589821 -2.97583e-19)
(0.634656 0.5395 -3.68829e-19)
(0.611113 0.497809 -1.51762e-19)
(0.586547 0.462621 1.9591e-19)
(0.55567 0.418053 -4.64407e-19)
(0.49504 0.366432 8.41438e-19)
(0.371027 0.267512 5.67466e-21)
(0.19906 0.139015 -7.83036e-19)
(0.0442884 0.030409 -1.15988e-19)
(0.434257 0.32813 0)
(0.972802 0.704219 -2.86758e-19)
(1.18324 0.880848 2.24268e-19)
(1.21503 0.907973 0)
(1.17501 0.906377 0)
(1.1181 0.879886 -3.83968e-19)
(1.0528 0.852594 0)
(0.981006 0.819782 0)
(0.901188 0.780463 -1.46398e-19)
(0.812805 0.732373 6.63805e-20)
(0.725477 0.674761 -6.4396e-19)
(0.657138 0.616298 0)
(0.612426 0.562846 -4.00723e-19)
(0.571423 0.51409 1.13579e-20)
(0.551551 0.467142 -6.27331e-19)
(0.531112 0.431595 2.51225e-19)
(0.47561 0.36309 3.209e-21)
(0.352614 0.265756 -8.94249e-19)
(0.184377 0.134637 4.24176e-19)
(0.0393436 0.0279686 1.24092e-19)
(0.433201 0.342309 0)
(0.965223 0.733172 -3.42949e-19)
(1.17153 0.914427 2.38873e-19)
(1.20222 0.942605 4.88405e-19)
(1.16171 0.940331 9.23357e-20)
(1.10482 0.912737 -6.11012e-20)
(1.03934 0.884578 3.41187e-20)
(0.966892 0.85068 1.298e-20)
(0.886077 0.81096 1.56605e-19)
(0.79681 0.76255 4.42198e-19)
(0.70937 0.704826 5.34486e-19)
(0.637125 0.644333 9.96271e-20)
(0.57869 0.586645 5.80177e-19)
(0.552294 0.533072 3.71247e-19)
(0.527677 0.487137 4.52273e-19)
(0.498951 0.427362 -2.79751e-19)
(0.443381 0.365612 -3.29427e-19)
(0.327067 0.256756 3.86415e-19)
(0.169123 0.126449 -2.28458e-19)
(0.0367264 0.0285413 4.04142e-19)
(0.432014 0.356055 4.53825e-19)
(0.957056 0.759188 5.44077e-19)
(1.15977 0.944879 1.31932e-19)
(1.18974 0.974417 1.62007e-20)
(1.14891 0.971836 -3.27759e-19)
(1.092 0.943472 1.11816e-19)
(1.02623 0.914637 -4.02807e-20)
(0.95348 0.880014 -2.14657e-20)
(0.871829 0.839357 -1.64392e-19)
(0.780766 0.789662 -4.8811e-19)
(0.688489 0.730358 3.37173e-20)
(0.609197 0.66832 0)
(0.557677 0.608471 0)
(0.508814 0.550251 -1.90067e-19)
(0.485487 0.487268 -7.4365e-19)
(0.467785 0.434848 6.06119e-19)
(0.42363 0.342634 3.67137e-19)
(0.323945 0.236361 0)
(0.17563 0.105079 7.29166e-19)
(0.030973 0.00734605 -4.35417e-19)
(0.431017 0.369066 -2.42326e-19)
(0.950211 0.785082 2.10283e-19)
(1.14877 0.974446 -2.95834e-19)
(1.17766 1.00473 -3.12473e-19)
(1.13645 1.00144 -1.32581e-19)
(1.07964 0.97222 2.56411e-20)
(1.01395 0.942839 0)
(0.941019 0.907597 -5.06302e-22)
(0.85856 0.866662 2.33864e-20)
(0.765683 0.817989 0)
(0.670795 0.760173 0)
(0.590516 0.69735 6.76281e-20)
(0.523099 0.633153 9.97066e-20)
(0.487224 0.56923 -2.05258e-19)
(0.456259 0.509125 5.36638e-19)
(0.425979 0.421599 -6.65777e-19)
(0.380241 0.330778 -7.86888e-19)
(0.308504 0.211745 6.96057e-19)
(0.209479 0.12746 -2.62095e-19)
(0.118878 0.0889958 1.51044e-19)
(0.429728 0.381332 2.82169e-19)
(0.94273 0.808081 0)
(1.13777 1.00112 0)
(1.16599 1.03251 -1.04125e-19)
(1.12459 1.02888 8.4287e-20)
(1.0679 0.999027 -2.08444e-20)
(1.00208 0.969169 -1.49324e-19)
(0.928832 0.933456 -6.07775e-20)
(0.845669 0.892134 2.56217e-19)
(0.751357 0.841846 -3.83289e-20)
(0.654286 0.782178 8.69951e-20)
(0.568261 0.720188 -5.7176e-19)
(0.503185 0.658974 -6.09829e-19)
(0.440162 0.592631 -1.0971e-19)
(0.401147 0.508579 0)
(0.375479 0.432517 -1.19069e-20)
(0.341862 0.275962 4.34259e-19)
(0.297162 0.113053 -7.28939e-19)
(0.256772 -0.0386409 5.44843e-19)
(0.0798858 -0.0909264 4.40205e-19)
(0.428595 0.392974 -6.15885e-19)
(0.93632 0.831033 -2.67641e-19)
(1.12744 1.02718 6.57032e-21)
(1.15469 1.0592 1.37031e-19)
(1.11301 1.05495 0)
(1.05641 1.02446 3.61112e-19)
(0.990659 0.994295 1.80215e-19)
(0.917348 0.958312 -3.70011e-20)
(0.833516 0.9171 -1.22637e-19)
(0.737382 0.868593 -3.66586e-20)
(0.636624 0.813401 3.40488e-20)
(0.54669 0.752031 5.04384e-19)
(0.466515 0.686145 5.95784e-19)
(0.416606 0.614287 1.06058e-19)
(0.368467 0.543616 5.73958e-19)
(0.307163 0.419964 0)
(0.205264 0.269899 0)
(0.0372314 0.265865 5.29649e-19)
(-0.0695392 0.62912 -3.32973e-20)
(0.00161228 1.50975 -6.71855e-19)
(0.427021 0.404036 3.35873e-19)
(0.929346 0.851449 7.97512e-19)
(1.1171 1.05082 -1.18975e-18)
(1.14369 1.08396 7.06234e-19)
(1.10182 1.07962 -7.76104e-20)
(1.04536 1.0488 4.85059e-19)
(0.979473 1.01851 0)
(0.905835 0.982533 8.70926e-20)
(0.821349 0.941493 0)
(0.724708 0.892666 4.16863e-19)
(0.6234 0.834187 -4.85373e-20)
(0.528725 0.775622 5.44227e-20)
(0.450773 0.719469 6.66994e-19)
(0.364202 0.654731 -2.37886e-19)
(0.279117 0.558363 -2.98094e-19)
(0.209237 0.482295 0)
(0.10613 0.571619 0)
(0.0357002 1.26427 0)
(0.0775309 2.43381 -2.98589e-19)
(0.107696 2.8964 -1.8485e-19)
(0.425578 0.414605 0)
(0.923358 0.871852 0)
(1.10742 1.07402 4.26601e-19)
(1.13311 1.10785 -5.87523e-19)
(1.09099 1.10317 3.92671e-19)
(1.03456 1.07207 -4.4277e-19)
(0.968709 1.04186 -2.02722e-20)
(0.895031 1.00606 1.57839e-20)
(0.810181 0.965863 2.02682e-20)
(0.711528 0.919023 -4.76206e-19)
(0.604163 0.867944 7.89194e-20)
(0.505384 0.81318 4.83572e-19)
(0.411353 0.753197 -6.5954e-19)
(0.341177 0.681026 -7.57651e-19)
(0.273706 0.623256 2.62005e-19)
(0.206083 0.743295 0)
(0.14152 1.50174 3.75297e-19)
(0.13938 2.67324 4.16936e-19)
(0.146013 3.08104 -4.66582e-19)
(0.13662 3.21906 5.10038e-19)
(0.423709 0.42442 0)
(0.916841 0.889759 6.54428e-19)
(1.09775 1.0949 -1.10268e-19)
(1.12286 1.12989 7.46513e-19)
(1.08057 1.12537 -4.12169e-19)
(1.02432 1.09428 0)
(0.958389 1.06424 0)
(0.884547 1.02888 0)
(0.799212 0.989363 2.444e-20)
(0.700261 0.943493 1.3511e-20)
(0.594872 0.88964 0)
(0.493701 0.837396 -4.7502e-19)
(0.406925 0.790398 0)
(0.295522 0.737824 5.40061e-19)
(0.214807 0.814741 -3.551e-19)
(0.17025 1.44586 -2.94628e-19)
(0.175282 2.66332 -7.16082e-19)
(0.194762 3.12589 -3.63914e-19)
(0.185011 3.2711 -4.43601e-19)
(0.169813 3.31204 3.69265e-19)
(0.422052 0.433638 -2.21913e-19)
(0.911253 0.907732 1.52047e-20)
(1.08878 1.11549 -1.19216e-19)
(1.11309 1.15121 -5.95698e-19)
(1.07057 1.14658 0)
(1.01436 1.11551 0)
(0.948501 1.08589 0)
(0.874695 1.05103 -5.94379e-21)
(0.789204 1.01278 -3.87087e-20)
(0.688936 0.969339 0)
(0.578076 0.923201 0)
(0.47249 0.878115 0)
(0.363753 0.832191 0)
(0.307122 0.824296 3.66668e-19)
(0.284698 1.18234 9.40667e-19)
(0.271522 2.34193 2.89538e-19)
(0.282301 3.08112 5.4618e-19)
(0.275005 3.29024 -3.73036e-19)
(0.224364 3.35817 1.37951e-19)
(0.190319 3.37078 0)
(0.420028 0.442324 2.25316e-19)
(0.904923 0.923728 -1.4167e-18)
(1.07955 1.13442 -3.99401e-19)
(1.1034 1.17137 -9.64986e-20)
(1.06073 1.16711 1.04787e-19)
(1.00476 1.1363 -7.22281e-19)
(0.938907 1.10705 4.72612e-20)
(0.865116 1.07292 2.54226e-19)
(0.779415 1.03587 0)
(0.679041 0.993941 -2.74193e-20)
(0.570141 0.947044 2.49431e-20)
(0.465352 0.902483 0)
(0.382167 0.874502 0)
(0.327851 0.998068 -4.55998e-19)
(0.292644 1.83609 1.87816e-20)
(0.289073 2.93038 -1.74894e-19)
(0.307877 3.29482 3.19064e-19)
(0.280846 3.39718 1.70463e-19)
(0.213078 3.42285 -8.89442e-20)
(0.187074 3.43147 4.24185e-20)
(0.417923 0.451084 4.35008e-19)
(0.898955 0.94146 1.35843e-18)
(1.07024 1.15488 4.89846e-19)
(1.0934 1.19251 0)
(1.05061 1.18814 0)
(0.994762 1.15738 5.53617e-19)
(0.929144 1.12867 -3.21134e-19)
(0.855587 1.09515 -2.35826e-19)
(0.770043 1.05925 -7.70163e-21)
(0.669103 1.02029 2.18035e-19)
(0.557339 0.98092 -4.41755e-19)
(0.446322 0.945432 0)
(0.363744 0.948085 0)
(0.344453 1.34459 -2.72191e-19)
(0.355912 2.44765 -3.45848e-19)
(0.397668 3.19943 0)
(0.423306 3.38241 -1.11271e-19)
(0.353498 3.44726 1.74567e-19)
(0.279043 3.49154 -2.77995e-19)
(0.254509 3.51764 1.82001e-19)
(0.414974 0.460283 -8.24197e-19)
(0.89135 0.958375 -6.4707e-19)
(1.05965 1.1751 0)
(1.0825 1.21395 0)
(1.03971 1.20993 0)
(0.984292 1.17929 0)
(0.918869 1.15078 3.41514e-19)
(0.845635 1.11783 -3.32847e-19)
(0.760301 1.08345 0)
(0.660205 1.04627 -1.93838e-19)
(0.550678 1.00647 7.58841e-19)
(0.450804 0.975246 3.50892e-20)
(0.401526 1.06467 5.38494e-20)
(0.40578 1.7264 4.17564e-19)
(0.42481 2.88159 -1.6718e-19)
(0.460733 3.32886 0)
(0.443266 3.45895 -8.20841e-21)
(0.353722 3.54796 9.8366e-20)
(0.270476 3.61674 3.02184e-19)
(0.194496 3.59674 -2.38683e-19)
(0.411952 0.469572 3.90741e-19)
(0.883918 0.978071 -6.39356e-19)
(1.04861 1.19774 0)
(1.07087 1.23697 -1.53815e-19)
(1.0281 1.23258 5.79252e-19)
(0.972981 1.20173 0)
(0.908095 1.17357 0)
(0.835461 1.14115 6.30754e-19)
(0.750888 1.1074 9.95833e-22)
(0.650843 1.07263 1.01078e-19)
(0.537536 1.0401 -3.4167e-19)
(0.447467 1.03135 2.30712e-19)
(0.407947 1.23601 0)
(0.441871 2.14536 -2.06047e-19)
(0.490356 3.13811 1.571e-19)
(0.551891 3.43615 1.00389e-20)
(0.545588 3.53923 0)
(0.47692 3.63142 -1.59758e-19)
(0.401607 3.67621 -6.82452e-19)