/*--------------------------------*- C++ -*----------------------------------*\
| =========                 |                                                 |
| \\      /  F ield         | OpenFOAM: The Open Source CFD Toolbox           |
|  \\    /   O peration     | Version:  v2012                                 |
|   \\  /    A nd           | Website:  www.openfoam.com                      |
|    \\/     M anipulation  |                                                 |
\*---------------------------------------------------------------------------*/
FoamFile
{
    version     2.0;
    format      ascii;
    class       volScalarField;
    location    "38";
    object      p;
}
// * * * * * * * * * * * * * * * * * * * * * * * * * * * * * * * * * * * * * //

dimensions      [0 2 -2 0 0 0 0];


internalField   nonuniform List<scalar> 
2200
(
0.804301
0.7828
0.766889
0.751218
0.736604
0.724072
0.713702
0.705569
0.699836
0.69682
0.697229
0.700983
0.707253
0.715765
0.726407
0.739141
0.7539
0.769765
0.785778
0.807283
0.736741
0.733482
0.730555
0.72643
0.720954
0.714468
0.707834
0.70185
0.6973
0.694833
0.695237
0.698475
0.703596
0.710009
0.716953
0.723674
0.729317
0.733437
0.736321
0.739658
0.696865
0.697083
0.699126
0.700454
0.700831
0.699959
0.697947
0.695247
0.692665
0.691122
0.691592
0.693952
0.697156
0.700322
0.702637
0.703643
0.703363
0.702309
0.700587
0.700345
0.674358
0.675805
0.678404
0.680862
0.683302
0.685309
0.686446
0.686645
0.68623
0.685881
0.686427
0.687694
0.688814
0.689134
0.688398
0.686687
0.684493
0.682261
0.67966
0.678247
0.660061
0.662031
0.66485
0.667681
0.670521
0.673327
0.675762
0.677581
0.678744
0.679448
0.680073
0.680447
0.680125
0.67895
0.677026
0.67461
0.672025
0.669286
0.666496
0.664566
0.65284
0.654441
0.656632
0.659139
0.661773
0.664403
0.666944
0.66931
0.671258
0.672656
0.673389
0.673296
0.672352
0.670753
0.668783
0.666591
0.664234
0.66188
0.659774
0.658196
0.649472
0.650496
0.651757
0.653609
0.655738
0.657882
0.660024
0.662248
0.664386
0.666124
0.667001
0.666854
0.66594
0.664627
0.663157
0.661512
0.659754
0.658132
0.656994
0.65598
0.64689
0.647556
0.648186
0.649488
0.651099
0.652763
0.654465
0.656309
0.658248
0.660065
0.661133
0.661249
0.660796
0.660052
0.659168
0.658127
0.65699
0.656008
0.655529
0.654858
0.643837
0.644282
0.644679
0.645671
0.646923
0.648275
0.649712
0.651268
0.652954
0.654707
0.656008
0.656603
0.656702
0.65651
0.656089
0.655505
0.654825
0.654221
0.653997
0.653539
0.639994
0.640295
0.640653
0.641523
0.642627
0.643881
0.64528
0.646815
0.648485
0.650287
0.651888
0.652963
0.653499
0.65365
0.653513
0.653182
0.65275
0.652321
0.652148
0.651833
0.635456
0.635653
0.636036
0.63689
0.638009
0.639333
0.640861
0.642566
0.644437
0.646484
0.64845
0.6499
0.650751
0.651114
0.651147
0.650981
0.650684
0.650358
0.650191
0.64997
0.630496
0.630628
0.631007
0.63187
0.63308
0.634569
0.636296
0.638239
0.640411
0.64283
0.645244
0.647118
0.64827
0.648863
0.64905
0.648979
0.648779
0.648562
0.648423
0.648266
0.625341
0.625431
0.625804
0.626635
0.627883
0.629498
0.63146
0.633759
0.636397
0.63937
0.642356
0.644695
0.64616
0.646966
0.647329
0.647414
0.647394
0.647305
0.647205
0.647079
0.619822
0.619877
0.620259
0.621108
0.622423
0.62416
0.626334
0.629029
0.632257
0.635971
0.639617
0.642385
0.644193
0.645311
0.645992
0.646384
0.646562
0.646606
0.64656
0.646445
0.613777
0.613792
0.614201
0.615098
0.616565
0.618475
0.62086
0.62385
0.627581
0.632028
0.636497
0.64
0.642441
0.644141
0.645283
0.64597
0.646331
0.646496
0.6465
0.646399
0.6073
0.607212
0.607644
0.608626
0.610266
0.612408
0.615059
0.618376
0.622566
0.627757
0.633286
0.637927
0.641314
0.64373
0.645356
0.646329
0.646902
0.647183
0.647235
0.647154
0.600274
0.600271
0.600624
0.601637
0.603543
0.606002
0.609123
0.613069
0.618075
0.624299
0.6311
0.636935
0.641238
0.644259
0.646322
0.647684
0.648548
0.648973
0.64908
0.649004
0.59229
0.592278
0.59271
0.59393
0.596134
0.599028
0.602841
0.607791
0.61404
0.621751
0.630039
0.637028
0.64214
0.645824
0.648445
0.650234
0.65135
0.651923
0.652093
0.652013
0.583087
0.583005
0.583556
0.58505
0.587553
0.590983
0.595606
0.601638
0.609386
0.618957
0.629094
0.637561
0.643823
0.648389
0.651674
0.653952
0.655384
0.656151
0.656389
0.656297
0.572122
0.57201
0.572621
0.574344
0.577313
0.5814
0.586894
0.594138
0.603508
0.615171
0.627627
0.638102
0.645951
0.651736
0.65592
0.658839
0.660735
0.661734
0.662047
0.661928
0.558971
0.558843
0.559533
0.561511
0.565007
0.56999
0.576789
0.585721
0.597208
0.611439
0.626589
0.639357
0.648913
0.656058
0.661268
0.665013
0.667487
0.668747
0.669137
0.668978
0.542497
0.542407
0.543365
0.545855
0.550296
0.556672
0.565338
0.576703
0.591111
0.608546
0.626711
0.64192
0.65332
0.661854
0.668171
0.672731
0.675745
0.677243
0.677683
0.677477
0.521772
0.521611
0.522913
0.526299
0.532181
0.540633
0.552004
0.566661
0.584755
0.606062
0.62778
0.645682
0.65906
0.66908
0.676521
0.681926
0.685485
0.687209
0.687697
0.687441
0.494448
0.494484
0.496579
0.501353
0.50953
0.521146
0.536285
0.555125
0.577652
0.603505
0.629303
0.650309
0.665938
0.677677
0.686443
0.692776
0.696873
0.698793
0.699298
0.698989
0.457626
0.457925
0.461543
0.46927
0.481381
0.49782
0.518143
0.542322
0.570165
0.601196
0.631481
0.655863
0.673943
0.687515
0.697704
0.705128
0.709822
0.711935
0.712446
0.712047
0.4081
0.408541
0.415651
0.42866
0.447256
0.47082
0.498083
0.528912
0.563031
0.599881
0.63499
0.662834
0.683375
0.698887
0.710611
0.719064
0.724219
0.726357
0.726732
0.726312
0.342136
0.345098
0.360466
0.381926
0.409455
0.441728
0.477096
0.515461
0.556606
0.59998
0.640496
0.672473
0.696253
0.714294
0.727933
0.737947
0.743997
0.746311
0.746506
0.746292
0.266886
0.276617
0.302294
0.333729
0.371346
0.412614
0.456099
0.50224
0.550791
0.601186
0.647938
0.684945
0.71256
0.733701
0.750055
0.761959
0.769128
0.771453
0.771527
0.771671
0.199985
0.215038
0.247191
0.287214
0.334243
0.38435
0.435828
0.489711
0.545581
0.602842
0.655479
0.69702
0.728187
0.75208
0.770262
0.783624
0.791624
0.795008
0.795696
0.795679
0.14928
0.162776
0.200247
0.246159
0.300338
0.357765
0.416664
0.477856
0.540663
0.604491
0.662646
0.708452
0.742516
0.768462
0.788337
0.803243
0.811784
0.815419
0.816085
0.816167
0.107535
0.12014
0.161133
0.210917
0.270494
0.333718
0.398997
0.46667
0.535765
0.605661
0.669224
0.718793
0.755352
0.78304
0.803944
0.819573
0.828711
0.832652
0.833448
0.833561
0.0716107
0.0844613
0.12786
0.180482
0.244291
0.312163
0.382803
0.456089
0.530861
0.606599
0.67511
0.727818
0.766389
0.795294
0.81698
0.832784
0.842307
0.846568
0.847536
0.847643
0.040209
0.0532142
0.0986014
0.153734
0.220983
0.292691
0.367866
0.446007
0.525903
0.606679
0.679196
0.734894
0.775271
0.805175
0.827207
0.843284
0.853354
0.857867
0.859036
0.859129
0.0121015
0.0251661
0.0722117
0.129618
0.199801
0.274761
0.353797
0.436097
0.520452
0.605756
0.68271
0.741056
0.782719
0.813372
0.836057
0.852366
0.862752
0.867533
0.8688
0.868859
-0.0135732
-0.000541254
0.0477628
0.107351
0.180146
0.257928
0.340298
0.426288
0.514792
0.604698
0.685273
0.745982
0.789273
0.820831
0.843987
0.860502
0.871071
0.875895
0.877147
0.876969
-0.0376975
-0.0243141
0.02477
0.0864013
0.16149
0.241797
0.327136
0.41644
0.508602
0.602239
0.686291
0.750354
0.79518
0.827521
0.851159
0.867797
0.878049
0.882946
0.884166
0.884002
-0.0603414
-0.0468341
0.0030209
0.0664591
0.143529
0.226096
0.314032
0.406175
0.501544
0.598991
0.687658
0.754311
0.800809
0.834126
0.857779
0.874433
0.884692
0.889389
0.890722
0.890611
-0.0817081
-0.0682332
-0.0176868
0.0472863
0.126042
0.210603
0.300824
0.395566
0.494142
0.59547
0.687637
0.757162
0.806236
0.84035
0.864466
0.881034
0.891146
0.895774
0.896949
0.896876
-0.102305
-0.088608
-0.037557
0.0286811
0.108868
0.195219
0.287548
0.384751
0.486244
0.590834
0.686745
0.760364
0.811407
0.846856
0.871352
0.887763
0.897671
0.90202
0.903151
0.903039
-0.122562
-0.108223
-0.0567945
0.0105241
0.0919367
0.179918
0.274201
0.373594
0.477564
0.585302
0.685378
0.76241
0.81636
0.853671
0.878703
0.894902
0.904228
0.908297
0.909161
0.90903
-0.14251
-0.127332
-0.0755301
-0.00722513
0.0752574
0.164681
0.260685
0.36203
0.468311
0.579114
0.683001
0.763838
0.821239
0.860782
0.886815
0.902689
0.911141
0.914359
0.914956
0.914779
-0.161996
-0.146079
-0.0938279
-0.0245732
0.0588426
0.149499
0.246987
0.350105
0.458625
0.572262
0.679459
0.764321
0.825546
0.868255
0.896006
0.91164
0.918529
0.920271
0.920302
0.920159
-0.180895
-0.164418
-0.111671
-0.0415238
0.0427065
0.134409
0.233191
0.337933
0.448457
0.564332
0.674353
0.763595
0.829233
0.876006
0.90653
0.922591
0.927517
0.925665
0.924941
0.925687
-0.199176
-0.182291
-0.129015
-0.05804
0.0269082
0.119496
0.219379
0.325499
0.437648
0.555451
0.668483
0.761629
0.831942
0.883623
0.918357
0.936292
0.939908
0.933806
0.928325
0.926461
-0.216817
-0.199579
-0.145791
-0.0740732
0.0115102
0.104839
0.205614
0.31283
0.426344
0.545959
0.661333
0.75776
0.833038
0.890657
0.931267
0.953496
0.960096
0.947911
0.945248
0.949673
-0.233823
-0.21624
-0.161941
-0.0895573
-0.00341491
0.0905135
0.191977
0.300048
0.414688
0.535772
0.652975
0.752446
0.832299
0.895951
0.944074
0.973927
0.987088
0.96066
0.917657
0.87862
-0.250125
-0.232261
-0.177496
-0.104561
-0.0179704
0.0763998
0.178342
0.287019
0.402492
0.524758
0.643481
0.74506
0.828386
0.898378
0.955401
0.996552
1.02455
1.01629
1.03327
1.08769
-0.265681
-0.247709
-0.192552
-0.119222
-0.0323344
0.0622819
0.164463
0.273451
0.389365
0.512323
0.632025
0.734749
0.820642
0.895109
0.956868
1.00164
1.02298
1.01048
0.973776
0.985556
-0.280457
-0.262537
-0.207065
-0.133495
-0.0464388
0.0482582
0.150476
0.259491
0.37546
0.498605
0.618691
0.721559
0.80715
0.881927
0.943173
0.985774
0.981775
0.933962
0.872872
0.861598
-0.294457
-0.276755
-0.221037
-0.147381
-0.060286
0.0343248
0.136393
0.245182
0.36083
0.483616
0.603327
0.705092
0.788132
0.857355
0.911921
0.927161
0.896085
0.823347
0.750741
0.732538
-0.307708
-0.290341
-0.234478
-0.160904
-0.073905
0.0204596
0.122204
0.230532
0.345502
0.467328
0.585667
0.685189
0.762446
0.819172
0.849212
0.840185
0.788455
0.688895
0.602741
0.582823
-0.320674
-0.303721
-0.247788
-0.174432
-0.0876506
0.00634458
0.10763
0.215307
0.329281
0.449556
0.565726
0.661558
0.731598
0.772412
0.768318
0.735784
0.629797
0.509284
0.403118
0.377923
-0.334251
-0.317667
-0.261664
-0.188594
-0.102101
-0.0085072
0.0922427
0.19913
0.311872
0.43012
0.543265
0.633876
0.696529
0.714109
0.680086
0.595551
0.441204
0.289979
0.162316
0.136248
-0.34897
-0.332621
-0.276436
-0.203627
-0.117435
-0.0242277
0.0759477
0.18194
0.293245
0.40903
0.51823
0.60333
0.65491
0.645374
0.59133
0.443758
0.243801
0.0311262
-0.148749
-0.195698
-0.364925
-0.348639
-0.292154
-0.219553
-0.13363
-0.0407857
0.0587741
0.163762
0.27346
0.386419
0.490529
0.570066
0.606617
0.565877
0.478189
0.289407
0.055904
-0.235133
-0.558896
-0.704249
-0.382204
-0.365855
-0.308941
-0.236451
-0.150735
-0.0582436
0.0406666
0.144562
0.252501
0.362359
0.460618
0.5342
0.553367
0.481576
0.344749
0.136155
-0.102127
-0.450828
-1.04439
-1.61983
-0.400861
-0.384309
-0.326854
-0.254384
-0.168768
-0.0765873
0.0216685
0.124431
0.23055
0.337246
0.429558
0.495574
0.497037
0.406192
0.214846
-0.0234924
-0.231956
-0.473813
-1.04261
-2.58636
-0.420909
-0.404138
-0.345997
-0.273466
-0.187884
-0.0960141
0.00155341
0.103108
0.207277
0.310669
0.397095
0.453844
0.43628
0.34684
0.118817
-0.125595
-0.278812
-0.32172
-0.319637
-0.714337
-0.44225
-0.425392
-0.366529
-0.294003
-0.208478
-0.117
-0.0202768
0.0798572
0.181751
0.281222
0.362365
0.4089
0.37518
0.298064
0.0667691
-0.142827
-0.258684
-0.26924
-0.218135
-0.259959
-0.464827
-0.448006
-0.388448
-0.316032
-0.230612
-0.139662
-0.0439596
0.0545196
0.153769
0.2488
0.325255
0.362053
0.321191
0.246611
0.0330183
-0.135572
-0.220274
-0.227764
-0.275302
-0.281686
-0.488533
-0.471724
-0.411665
-0.339565
-0.254271
-0.163999
-0.0695155
0.0270854
0.123394
0.213799
0.285676
0.313554
0.273572
0.185993
0.00480492
-0.126182
-0.20042
-0.171545
-0.194042
-0.195873
-0.513204
-0.496166
-0.436082
-0.364476
-0.279284
-0.189921
-0.096854
-0.00235659
0.09072
0.176516
0.243799
0.261698
0.231576
0.119053
-0.0294204
-0.120924
-0.168528
-0.209264
-0.185593
-0.193601
-0.5384
-0.521025
-0.461555
-0.390598
-0.305435
-0.217242
-0.125759
-0.0335268
0.0559892
0.137484
0.200866
0.208585
0.189128
0.0564541
-0.0679858
-0.136115
-0.12442
-0.183979
-0.160343
-0.16583
-0.563475
-0.545893
-0.487889
-0.417489
-0.332352
-0.245684
-0.155906
-0.0660802
0.0194058
0.0969191
0.157411
0.157019
0.138573
0.00329907
-0.0977511
-0.154829
-0.133728
-0.159299
-0.161775
-0.161931
-0.587851
-0.570509
-0.514238
-0.444443
-0.359723
-0.274851
-0.186844
-0.0995049
-0.0183406
0.0553323
0.114388
0.107974
0.0826195
-0.0418053
-0.115243
-0.152412
-0.175909
-0.161105
-0.167009
-0.163568
-0.610771
-0.594145
-0.539604
-0.470608
-0.387099
-0.30415
-0.217976
-0.133165
-0.0563169
0.0130027
0.071774
0.0622628
0.025371
-0.0798128
-0.131963
-0.134749
-0.194514
-0.158801
-0.166783
-0.160498
-0.631344
-0.615833
-0.563001
-0.495068
-0.414068
-0.332774
-0.248539
-0.166354
-0.093393
-0.0294
0.0290057
0.0175301
-0.0269807
-0.101906
-0.148838
-0.132628
-0.188916
-0.148017
-0.152935
-0.14866
-0.648304
-0.634339
-0.583766
-0.517347
-0.439435
-0.359648
-0.277601
-0.198122
-0.128441
-0.0707731
-0.0127879
-0.0271889
-0.0769667
-0.110131
-0.133261
-0.121845
-0.13064
-0.135848
-0.138948
-0.137698
-0.660571
-0.648577
-0.600855
-0.536548
-0.461683
-0.383769
-0.30416
-0.227405
-0.160434
-0.109511
-0.0524533
-0.0698972
-0.134599
-0.122181
-0.0589371
-0.0474695
-0.0750413
-0.121793
-0.139416
-0.144919
-0.667038
-0.657302
-0.613328
-0.551496
-0.479349
-0.403949
-0.326993
-0.252885
-0.188086
-0.143176
-0.0885586
-0.107194
-0.201026
-0.219457
-0.134733
-0.161748
-0.175577
-0.194196
-0.203268
-0.202827
-0.667135
-0.659422
-0.619443
-0.560603
-0.491458
-0.418906
-0.344709
-0.272927
-0.20987
-0.168373
-0.120317
-0.138016
-0.283773
-0.468826
-0.597212
-0.694399
-0.702728
-0.649707
-0.603651
-0.57122
-0.659981
-0.652745
-0.617671
-0.562734
-0.496905
-0.427373
-0.355886
-0.285883
-0.223124
-0.181374
-0.142307
-0.153784
-0.348283
-0.692644
-1.14444
-1.38613
-1.40431
-1.352
-1.22472
-1.1297
-0.64156
-0.633874
-0.605567
-0.556378
-0.49487
-0.4286
-0.359461
-0.29003
-0.224977
-0.177736
-0.142946
-0.130792
-0.28287
-0.54814
-0.872794
-0.98903
-0.925261
-0.834988
-0.752304
-0.697603
-0.605282
-0.59837
-0.581995
-0.541798
-0.485188
-0.421954
-0.354851
-0.284489
-0.213679
-0.153538
-0.105526
-0.0401999
0.0206805
0.142149
0.239287
0.360346
0.476863
0.56495
0.630514
0.694793
-0.559647
-0.555865
-0.55109
-0.519572
-0.469706
-0.409276
-0.342459
-0.269672
-0.19018
-0.107539
-0.0278898
0.115116
0.338236
0.700659
1.05247
1.3447
1.55883
1.6907
1.75608
1.77436
-0.527379
-0.527461
-0.521361
-0.497613
-0.452746
-0.393195
-0.324286
-0.247723
-0.159555
-0.0552826
0.0560186
0.214561
0.508378
0.913903
1.31165
1.64361
1.87715
2.00832
2.06422
2.08016
-0.495375
-0.496164
-0.490321
-0.477483
-0.437424
-0.37779
-0.305618
-0.225945
-0.134152
-0.0240003
0.0936193
0.20965
0.472751
0.804012
1.12568
1.40137
1.60911
1.73375
1.79102
1.80841
-0.466589
-0.465381
-0.464561
-0.460812
-0.422346
-0.363143
-0.289564
-0.207841
-0.118236
-0.0152086
0.0956864
0.172262
0.378998
0.650508
0.903483
1.1211
1.29611
1.40514
1.45425
1.46747
-0.453787
-0.452053
-0.457344
-0.449425
-0.410124
-0.348648
-0.27506
-0.194887
-0.111875
-0.0233717
0.0796145
0.134837
0.278601
0.495862
0.696262
0.860282
0.991944
1.07869
1.11764
1.12811
-0.429966
-0.428979
-0.436834
-0.428081
-0.391672
-0.329365
-0.258431
-0.183331
-0.108053
-0.0346836
0.0593126
0.106634
0.196899
0.36318
0.520712
0.64298
0.738256
0.802829
0.830987
0.837048
-0.380639
-0.38128
-0.38849
-0.381102
-0.3524
-0.295039
-0.234196
-0.167609
-0.10098
-0.0413791
0.0412819
0.0863906
0.140603
0.26437
0.384336
0.474065
0.542182
0.587702
0.607102
0.613907
-0.300829
-0.303174
-0.306753
-0.302204
-0.280448
-0.242021
-0.196822
-0.144058
-0.0880063
-0.0404834
0.0282387
0.0705643
0.103726
0.197488
0.285209
0.348603
0.398077
0.433899
0.446839
0.450343
-0.202822
-0.204641
-0.206439
-0.204522
-0.19293
-0.172212
-0.145258
-0.110866
-0.0681272
-0.0319466
0.0212558
0.0573953
0.0806906
0.152637
0.215087
0.257855
0.293638
0.318313
0.329671
0.333129
-0.110608
-0.111814
-0.113358
-0.113956
-0.110689
-0.103117
-0.0907703
-0.0719267
-0.0440933
-0.0190511
0.0190757
0.0476938
0.0655746
0.121046
0.164421
0.193514
0.216641
0.231212
0.238292
0.240297
-0.0382956
-0.0391472
-0.0406193
-0.0432915
-0.0457061
-0.0463762
-0.0436782
-0.0359381
-0.0208292
-0.00615131
0.0188901
0.041806
0.0547693
0.0957072
0.124546
0.144198
0.158133
0.165229
0.167538
0.167435
0.0094205
0.008854
0.00745429
0.00360738
-0.00238465
-0.00741294
-0.0100549
-0.00913354
-0.00296958
0.00467482
0.0189797
0.0356504
0.0450649
0.0722872
0.0915543
0.103994
0.111523
0.11381
0.113072
0.11189
0.0358452
0.0353773
0.0340422
0.0299022
0.0226338
0.0157383
0.0103005
0.00743775
0.00881485
0.012745
0.0207479
0.0297453
0.0369754
0.052164
0.0642333
0.0721244
0.075761
0.0761591
0.0747817
0.0731106
0.0474062
0.047021
0.0458512
0.0422013
0.0355135
0.0285111
0.0221811
0.0176235
0.0166737
0.0182481
0.0234606
0.0267554
0.0307302
0.0384557
0.0443264
0.0478419
0.0489697
0.047692
0.0459942
0.0445019
0.0507707
0.0504533
0.049514
0.0466151
0.0412993
0.0353661
0.0295145
0.0244921
0.0224525
0.0218478
0.0252841
0.0265972
0.0267407
0.0300878
0.0325435
0.0330127
0.0324152
0.0298905
0.0275248
0.0261952
0.0498077
0.0495757
0.0488679
0.0468237
0.0429732
0.0383484
0.0335361
0.0287071
0.0261447
0.0241198
0.0261765
0.0274866
0.027367
0.028909
0.0294126
0.0288936
0.0273576
0.0258388
0.0238626
0.0222366
0.0468938
0.0467304
0.046191
0.0447448
0.0418802
0.0383885
0.0345425
0.0303697
0.0278226
0.0252884
0.0261675
0.0268801
0.0278498
0.030016
0.0304798
0.0303391
0.0290854
0.027675
0.0266839
0.0252125
0.0429021
0.0427819
0.0423503
0.0413634
0.0392449
0.0366874
0.0336838
0.0302708
0.0279887
0.0255213
0.0256629
0.0261645
0.0264595
0.028429
0.0302178
0.030367
0.0315285
0.0311087
0.0304764
0.029384
0.0386883
0.0385738
0.0382143
0.0374765
0.035952
0.0341643
0.0318661
0.0291831
0.0271
0.0243461
0.0243885
0.023991
0.025697
0.026344
0.0290344
0.0314004
0.0333413
0.0354038
0.0362358
0.0345178
0.0347745
0.0346673
0.0344112
0.0338912
0.0327734
0.0315052
0.0297651
0.0276133
0.0258037
0.0224353
0.0222095
0.0207786
0.0226689
0.0243354
0.0282299
0.033019
0.0352142
0.0378559
0.0397894
0.0380971
0.031414
0.0313015
0.0311235
0.0307228
0.029947
0.0290931
0.0277895
0.0258335
0.0245995
0.0211351
0.0191441
0.0170829
0.0169027
0.0213937
0.0273757
0.0328285
0.0383493
0.0401466
0.0412902
0.0403362
0.0284606
0.0283458
0.0282772
0.0280015
0.0274329
0.0267672
0.0260934
0.0242053
0.0226239
0.0194278
0.0156864
0.0119199
0.00923441
0.0142961
0.0242299
0.0301406
0.0351892
0.0367706
0.0366572
0.0359366
0.0256536
0.0255297
0.0254728
0.0253223
0.0251763
0.0247692
0.0245397
0.023296
0.0214419
0.0172182
0.0123709
0.00826565
0.00311095
0.00899649
0.0175791
0.0227342
0.0235519
0.026137
0.0281956
0.0270331
0.0228418
0.0227612
0.0227981
0.0228418
0.0229354
0.0225688
0.0226398
0.0218279
0.019719
0.0164159
0.0120381
0.00782104
0.00126824
0.00946651
0.0156752
0.0184115
0.0243481
0.028683
0.031083
0.0305584
0.0192295
0.019115
0.0192169
0.0195046
0.0196016
0.0196405
0.0192413
0.0202063
0.0212527
0.0182384
0.0148662
0.00962839
0.00329159
0.0106342
0.0172511
0.0242729
0.0350584
0.0397912
0.0394869
0.0371009
0.0149834
0.0148204
0.0148556
0.0153537
0.0154413
0.0160727
0.0162396
0.0183045
0.0216731
0.0202496
0.0185404
0.0150243
0.00957771
0.00989812
0.0119306
0.0188078
0.0178744
0.0144108
0.0132763
0.0122116
0.0105355
0.0103438
0.0104213
0.0108845
0.0110726
0.0115684
0.0118662
0.0126625
0.0164268
0.0178328
0.0192269
0.022403
0.0138202
0.00853275
-0.00146001
-0.0105924
-0.017996
-0.0222314
-0.0202076
-0.0182533
0.00376206
0.00362053
0.00306348
0.00161122
0.000475277
-6.87658e-05
-0.000488599
0.000135367
0.00222107
0.00943746
0.0245039
0.0225948
0.0116144
0.00669109
-0.00444719
-0.0149818
-0.0197192
-0.0207306
-0.0176416
-0.015649
-1.06366
-0.211489
0.0590156
0.339006
0.525195
0.685712
0.818056
0.952549
1.09804
1.17722
-0.0725875
0.339551
0.359862
0.55073
0.679209
0.794072
0.893393
0.98141
1.00984
0.966922
0.312246
0.529528
0.568192
0.706328
0.795245
0.877549
0.945268
0.995995
0.998747
1.01217
0.546849
0.693104
0.729182
0.834105
0.891217
0.951305
0.996936
1.02979
1.03916
1.06262
0.7287
0.83256
0.862266
0.93241
0.976674
1.01924
1.05187
1.0764
1.08643
1.11783
0.87452
0.944614
0.97516
1.01921
1.05571
1.08643
1.11113
1.13197
1.14634
1.1745
0.995076
1.04649
1.07218
1.10064
1.12881
1.1529
1.17312
1.19248
1.20753
1.23393
1.09969
1.13702
1.15834
1.17931
1.20047
1.2201
1.23765
1.25585
1.27077
1.29442
1.19411
1.22329
1.24004
1.25552
1.27188
1.2881
1.30375
1.32074
1.33434
1.35666
1.28288
1.30341
1.31837
1.33174
1.3455
1.35939
1.37292
1.38752
1.39905
1.4187
1.36859
1.38456
1.39851
1.41043
1.42241
1.43405
1.44516
1.45683
1.46448
1.48129
1.45422
1.46702
1.48078
1.49244
1.50301
1.51275
1.52153
1.52975
1.5333
1.54457
1.54329
1.55435
1.56783
1.57707
1.5845
1.59169
1.59885
1.60536
1.60639
1.6138
1.64181
1.64652
1.65454
1.65901
1.6623
1.66676
1.67277
1.6805
1.68436
1.69424
1.75499
1.74133
1.73393
1.72834
1.72568
1.72708
1.73352
1.74592
1.76071
1.79037
1.87609
1.82032
1.78946
1.77235
1.76419
1.76415
1.7729
1.79246
1.82439
1.89361
)
;

boundaryField
{
    wall-4
    {
        type            zeroGradient;
    }
    pressure-outlet-7
    {
        type            fixedValue;
        value           uniform 0;
    }
    velocity-inlet-6
    {
        type            zeroGradient;
    }
    velocity-inlet-5
    {
        type            zeroGradient;
    }
    frontAndBackPlanes
    {
        type            empty;
    }
}


// ************************************************************************* //
