/*--------------------------------*- C++ -*----------------------------------*\
| =========                 |                                                 |
| \\      /  F ield         | OpenFOAM: The Open Source CFD Toolbox           |
|  \\    /   O peration     | Version:  v2012                                 |
|   \\  /    A nd           | Website:  www.openfoam.com                      |
|    \\/     M anipulation  |                                                 |
\*---------------------------------------------------------------------------*/
FoamFile
{
    version     2.0;
    format      ascii;
    class       surfaceScalarField;
    location    "38";
    object      phi;
}
// * * * * * * * * * * * * * * * * * * * * * * * * * * * * * * * * * * * * * //

dimensions      [0 3 -1 0 0 0 0];
oriented        oriented;


internalField   nonuniform List<scalar> 
4262
(
0.107151
0.470837
0.0955973
0.705139
0.0694488
0.858452
0.0474882
1.02072
0.0311221
1.21488
0.0198898
1.44945
0.0124831
1.73327
0.00730046
2.07622
0.00338677
2.48916
-0.000224774
2.9859
-0.00382686
2.98589
-0.00771521
2.48913
-0.0128419
2.07616
-0.0202039
1.73323
-0.0312651
1.44928
-0.0473839
1.21464
-0.0691587
1.02054
-0.0953481
0.858492
-0.107111
0.705348
0.470878
0.112887
0.357951
0.135323
0.682703
0.120416
0.873358
0.0978485
1.04329
0.0746659
1.23807
0.0529694
1.47115
0.0344827
1.75176
0.0202041
2.0905
0.00891901
2.50044
-0.00113967
2.99596
-0.0111551
2.99591
-0.0221453
2.50012
-0.0361804
2.0902
-0.0544108
1.75146
-0.0760919
1.47096
-0.0996541
1.2382
-0.122672
1.04356
-0.136615
0.872435
-0.113426
0.68216
0.357452
0.0920617
0.265889
0.12501
0.649755
0.121144
0.877224
0.104889
1.05955
0.0862481
1.25671
0.0672341
1.49016
0.0484444
1.77055
0.0305512
2.10839
0.0141224
2.51687
-0.00178414
3.01187
-0.0176318
3.01176
-0.0339692
2.51646
-0.0515933
2.10782
-0.0698766
1.76974
-0.0882494
1.48933
-0.105775
1.25572
-0.120395
1.05818
-0.125345
0.877386
-0.0923469
0.649161
0.265105
0.0641086
0.20178
0.105069
0.608795
0.106929
0.875363
0.0955409
1.07094
0.0814971
1.27075
0.0666979
1.50496
0.0506363
1.78661
0.0335122
2.12551
0.0158332
2.53455
-0.00283562
3.03054
-0.0211996
3.03012
-0.0382487
2.53351
-0.0545404
2.12411
-0.0699357
1.78513
-0.0840618
1.50346
-0.0978374
1.2695
-0.109479
1.06982
-0.106622
0.874528
-0.0647298
0.607269
0.200375
0.0374904
0.16429
0.0807276
0.565558
0.091054
0.865037
0.0839198
1.07807
0.0714032
1.28327
0.0595829
1.51678
0.046768
1.79942
0.0320453
2.14024
0.015381
2.55121
-0.003463
3.04938
-0.022012
3.04867
-0.0380675
2.54956
-0.0521749
2.13822
-0.0643981
1.79736
-0.0758005
1.51486
-0.0878508
1.28155
-0.0942865
1.07625
-0.0827603
0.863002
-0.03822
0.562729
0.162155
0.0194719
0.144818
0.0573214
0.527708
0.0728528
0.849505
0.0709159
1.08001
0.0623378
1.29184
0.0516131
1.52751
0.0403257
1.81071
0.0277102
2.15285
0.0126604
2.56626
-0.00499276
3.06704
-0.0223084
3.06599
-0.0365252
2.56378
-0.0481343
2.14983
-0.0582882
1.80751
-0.0680249
1.5246
-0.0756177
1.28914
-0.0765248
1.07716
-0.0596265
0.846104
-0.0202436
0.523346
0.141911
0.0107245
0.134093
0.042644
0.495789
0.0589253
0.833224
0.0593495
1.07958
0.0534074
1.29779
0.0442949
1.53662
0.0341008
1.8209
0.0227897
2.16416
0.00976591
2.57929
-0.00585782
3.08266
-0.0211118
3.08124
-0.0332881
2.57596
-0.0433899
2.15993
-0.0525641
1.81669
-0.0606291
1.53267
-0.065317
1.29383
-0.0635082
1.07535
-0.0453866
0.827982
-0.0115649
0.489524
0.130347
0.00663815
0.127455
0.0331222
0.469305
0.0495437
0.816802
0.051159
1.07797
0.0461747
1.30277
0.0379664
1.54483
0.0285191
1.83035
0.0178017
2.17488
0.00584216
2.59125
-0.00783058
3.09633
-0.0209331
3.09434
-0.0316386
2.58666
-0.0408538
2.16915
-0.0484258
1.82426
-0.0549215
1.53916
-0.0582869
1.2972
-0.0550241
1.07209
-0.0364339
0.809392
-0.00765658
0.460747
0.12269
0.00471083
0.122744
0.0266017
0.447414
0.0425211
0.800883
0.0447742
1.07571
0.0402737
1.30727
0.032838
1.55226
0.0241188
1.83907
0.0141693
2.18483
0.0030335
2.60238
-0.00941947
3.10878
-0.021256
3.10618
-0.0309324
2.59634
-0.039054
2.17727
-0.0460295
1.83123
-0.0518307
1.54496
-0.0545366
1.2999
-0.0499657
1.06752
-0.0309252
0.790352
-0.00604331
0.435865
0.116647
0.00377547
0.118969
0.0217868
0.429403
0.0370367
0.785633
0.0399985
1.07275
0.0358717
1.3114
0.0287366
1.5594
0.0203694
1.84744
0.0108257
2.19437
4.64345e-05
2.61316
-0.0119806
3.12081
-0.0231003
3.1173
-0.0318828
2.60512
-0.0392078
2.18459
-0.0452779
1.8373
-0.0500635
1.54975
-0.0517363
1.30157
-0.0458469
1.06163
-0.0268797
0.771384
-0.0053591
0.414344
0.111288
0.00307303
0.115896
0.0176032
0.414873
0.031812
0.771424
0.0351048
1.06946
0.0313281
1.31517
0.0246216
1.5661
0.0166629
1.8554
0.00742755
2.20361
-0.00304357
2.62363
-0.0147057
3.13247
-0.0254597
3.12805
-0.0336474
2.61331
-0.0399737
2.19092
-0.0450763
1.84241
-0.049065
1.55374
-0.0497741
1.30228
-0.0426308
1.05449
-0.0237452
0.752499
-0.00499474
0.395594
0.106293
0.00230561
0.11359
0.0134296
0.403749
0.0258614
0.758992
0.0293944
1.06593
0.0261217
1.31845
0.0197842
1.57244
0.0119218
1.86326
0.00287041
2.21266
-0.0073462
2.63385
-0.0184019
3.14353
-0.0281407
3.13779
-0.0355182
2.62069
-0.0411346
2.19654
-0.0454862
1.84676
-0.0481392
1.55639
-0.0475446
1.30169
-0.0393376
1.04628
-0.020998
0.734159
-0.00466504
0.379261
0.101628
0.00142656
0.112164
0.00955334
0.395622
0.0201743
0.748372
0.0230648
1.06304
0.0197666
1.32175
0.0139313
1.57828
0.00664171
1.87055
-0.00199623
2.2213
-0.0117941
2.64365
-0.022193
3.15393
-0.0312269
3.14683
-0.0377445
2.6272
-0.0421643
2.20096
-0.0452946
1.84989
-0.0467947
1.55789
-0.045547
1.30044
-0.0366278
1.03736
-0.0187946
0.716326
-0.00431567
0.364782
0.0973122
0.000712628
0.111451
0.00648353
0.389851
0.0151059
0.739749
0.0173599
1.06078
0.0135191
1.32559
0.00709511
1.5847
-0.000558065
1.8782
-0.00903449
2.22978
-0.0182668
2.65288
-0.0278678
3.16353
-0.0354952
3.15445
-0.0402806
2.63199
-0.0434812
2.20416
-0.0456576
1.85206
-0.0466133
1.55885
-0.0445139
1.29834
-0.0347342
1.02758
-0.0173979
0.69899
-0.00420798
0.351592
0.0931042
-7.59202e-06
0.111459
0.00301393
0.386829
0.00913394
0.733629
0.0103825
1.05953
0.00618528
1.32978
-0.000548931
1.59144
-0.00844808
1.8861
-0.0170205
2.23835
-0.0257482
2.66161
-0.0340677
3.17185
-0.0401705
3.16056
-0.0436458
2.63547
-0.0457148
2.20623
-0.0473813
1.85373
-0.0474066
1.55887
-0.0443261
1.29526
-0.0337728
1.01703
-0.0166128
0.68183
-0.00422822
0.339207
0.088876
-0.000914504
0.112373
-0.000598624
0.386514
0.00341552
0.729615
0.00362537
1.05932
-0.00121546
1.33462
-0.00855371
1.59877
-0.0168607
1.89441
-0.0254938
2.24698
-0.0340313
2.67015
-0.0418063
3.17962
-0.0470054
3.16575
-0.0493191
2.63778
-0.0502731
2.20718
-0.0505021
1.85396
-0.049139
1.55751
-0.0446444
1.29077
-0.0327858
1.00517
-0.0158718
0.664916
-0.0042205
0.327556
0.0846555
-0.00212693
0.1145
-0.00415222
0.388539
-0.0039661
0.729429
-0.00510854
1.06047
-0.0100266
1.33954
-0.0173727
1.60612
-0.0258519
1.90289
-0.0348859
2.25602
-0.0441242
2.67938
-0.0520676
3.18757
-0.0562667
3.16995
-0.0571342
2.63865
-0.0562953
2.20634
-0.0545662
1.85223
-0.0515177
1.55446
-0.0453903
1.28464
-0.0324484
0.992226
-0.0155384
0.648006
-0.00422171
0.31624
0.0804338
-0.00341703
0.117917
-0.00806812
0.39319
-0.010897
0.732258
-0.0140196
1.06359
-0.0199597
1.34548
-0.0280102
1.61417
-0.037034
1.91191
-0.0466216
2.2656
-0.0558113
2.68857
-0.0631636
3.19492
-0.0665621
3.17335
-0.0661778
2.63826
-0.0636973
2.20386
-0.0605247
1.84906
-0.0559797
1.54991
-0.0475735
1.27623
-0.0329148
0.977567
-0.0157922
0.630883
-0.00443077
0.304878
0.076003
-0.00499808
0.122915
-0.0134149
0.401607
-0.0202054
0.739048
-0.0259715
1.06935
-0.032583
1.35209
-0.041377
1.62296
-0.0513766
1.92191
-0.0617404
2.27597
-0.0715642
2.6984
-0.0786065
3.20196
-0.079875
3.17462
-0.077111
2.6355
-0.0724092
2.19916
-0.0667446
1.84339
-0.0599219
1.54309
-0.0498468
1.26616
-0.0341377
0.961858
-0.0166792
0.613424
-0.00477386
0.292973
0.0712291
-0.00639075
0.129306
-0.0183697
0.413586
-0.0294638
0.750142
-0.0378942
1.07779
-0.0465482
1.36075
-0.0570886
1.63351
-0.0684527
1.93327
-0.0800987
2.28761
-0.0898827
2.70818
-0.0951703
3.20725
-0.0944622
3.17391
-0.0901759
2.63121
-0.083727
2.19271
-0.0764107
1.83608
-0.067518
1.5342
-0.0548887
1.25353
-0.0369804
0.94395
-0.0184037
0.594848
-0.00531588
0.279885
0.0659133
-0.00866606
0.137972
-0.024971
0.429891
-0.0410383
0.76621
-0.0530909
1.08984
-0.0634828
1.37114
-0.0756027
1.64563
-0.0889191
1.94659
-0.10197
2.30066
-0.112875
2.71909
-0.118533
3.21291
-0.116256
3.17164
-0.108615
2.62357
-0.0986673
2.18276
-0.0878382
1.82525
-0.0761676
1.52253
-0.0613473
1.23871
-0.041669
0.924271
-0.0212253
0.574404
-0.00609388
0.264754
0.0598194
-0.0109173
0.148889
-0.0313277
0.450301
-0.0522829
0.787165
-0.0686065
1.10616
-0.0830532
1.38559
-0.0989651
1.66154
-0.114778
1.9624
-0.129555
2.31544
-0.140351
2.72988
-0.143621
3.21618
-0.137502
3.16552
-0.127093
2.61316
-0.115408
2.17108
-0.103372
1.81321
-0.089743
1.5089
-0.0718295
1.22079
-0.0486046
0.901046
-0.0248449
0.550644
-0.00701752
0.246926
0.0528019
-0.0155944
0.164484
-0.0431097
0.477816
-0.0702444
0.8143
-0.0917969
1.12771
-0.110124
1.40391
-0.12901
1.68042
-0.147692
1.98109
-0.163757
2.33151
-0.174394
2.74052
-0.176451
3.21824
-0.168473
3.15754
-0.154671
2.59936
-0.138583
2.15499
-0.121972
1.7966
-0.104605
1.49153
-0.0835948
1.19978
-0.0569237
0.874375
-0.029184
0.522905
-0.00809322
0.225835
0.0447086
-0.0195726
0.184056
-0.0553957
0.51364
-0.0914672
0.850371
-0.119492
1.15574
-0.143786
1.42821
-0.168101
1.70474
-0.189438
2.00242
-0.206244
2.34831
-0.215424
2.7497
-0.213148
3.21596
-0.198656
3.14305
-0.179691
2.58039
-0.161046
2.13634
-0.14327
1.77883
-0.12382
1.47208
-0.0985313
1.1745
-0.0663168
0.842161
-0.0332501
0.489838
-0.0088332
0.201419
0.0358754
-0.0327608
0.216817
-0.0808935
0.561772
-0.125803
0.895281
-0.161171
1.19111
-0.191945
1.45898
-0.219272
1.73206
-0.241741
2.02489
-0.257861
2.36443
-0.264679
2.75652
-0.258792
3.21007
-0.241026
3.12528
-0.219196
2.55856
-0.196171
2.11332
-0.172298
1.75495
-0.146742
1.44652
-0.115501
1.14326
-0.076961
0.80362
-0.0381147
0.450992
-0.00971748
0.173021
0.026158
-0.0471385
0.263956
-0.118948
0.633582
-0.178963
0.955296
-0.221078
1.23322
-0.256493
1.4944
-0.285772
1.76134
-0.307189
2.04631
-0.320128
2.37737
-0.321729
2.75812
-0.308879
3.19722
-0.283763
3.10016
-0.255145
2.52995
-0.227287
2.08546
-0.201595
1.72926
-0.173153
1.41808
-0.13512
1.10522
-0.0880879
0.756588
-0.0411998
0.404104
-0.00961525
0.141437
0.0165427
-0.0331303
0.297086
-0.0939503
0.694402
-0.149326
1.01067
-0.195213
1.27911
-0.237645
1.53683
-0.273635
1.79733
-0.307364
2.08004
-0.336838
2.40684
-0.357669
2.77895
-0.364093
3.20365
-0.352003
3.08807
-0.329468
2.50741
-0.300516
2.05651
-0.262243
1.69099
-0.21448
1.37032
-0.156678
1.04742
-0.0924629
0.692373
-0.0375616
0.349202
-0.00824923
0.112124
0.00829347
-0.0117447
0.308831
-0.0442323
0.726889
-0.0835294
1.04997
-0.121348
1.31693
-0.158443
1.57392
-0.192287
1.83118
-0.223335
2.11109
-0.249083
2.43259
-0.265754
2.79562
-0.267385
3.20528
-0.250998
3.07169
-0.223047
2.47946
-0.185877
2.01934
-0.145884
1.65099
-0.104926
1.32936
-0.0631092
1.0056
-0.0274144
0.656678
-0.00646072
0.328249
-0.000576293
0.10624
0.00771718
0.00152412
0.307307
-0.0211586
0.749572
-0.0493198
1.07813
-0.0784308
1.34604
-0.10824
1.60373
-0.137808
1.86074
-0.165562
2.13884
-0.188731
2.45576
-0.2037
2.81059
-0.204517
3.20609
-0.18789
3.05506
-0.158314
2.44989
-0.123879
1.9849
-0.0863006
1.61342
-0.0461733
1.28924
-0.0105721
0.970002
0.0102505
0.635856
0.0116994
0.3268
0.00428623
0.113653
0.0120034
0.0020598
0.305247
-0.00952655
0.761158
-0.0300855
1.09869
-0.0540539
1.37001
-0.0786781
1.62836
-0.103398
1.88546
-0.127176
2.16262
-0.147082
2.47567
-0.158832
2.82234
-0.15722
3.20448
-0.139962
3.0378
-0.113106
2.42303
-0.0799145
1.95171
-0.0435639
1.57707
-0.0119339
1.25761
0.0110404
0.947028
0.0205463
0.62635
0.0161961
0.33115
0.00556954
0.12428
0.017573
0.00462745
0.300619
-0.00326061
0.769046
-0.020342
1.11577
-0.0399973
1.38966
-0.0606779
1.64904
-0.0820372
1.90682
-0.102968
2.18355
-0.120815
2.49351
-0.132355
2.83388
-0.131725
3.20385
-0.114555
3.02063
-0.0880929
2.39657
-0.058994
1.92261
-0.0292861
1.54736
-0.000290502
1.22861
0.0193017
0.927436
0.0244114
0.62124
0.0170716
0.338489
0.00561171
0.13574
0.0231847
0.00562842
0.294991
0.000321145
0.774354
-0.0148077
1.1309
-0.0324665
1.40732
-0.0506901
1.66726
-0.069447
1.92558
-0.0879788
2.20208
-0.103879
2.50941
-0.113217
2.84322
-0.110489
3.20112
-0.0954099
3.00555
-0.0739671
2.37512
-0.0474262
1.89607
-0.0193223
1.51925
0.00300194
1.20629
0.0177679
0.91267
0.0216234
0.617385
0.0140878
0.346025
0.00445772
0.14537
0.0276424
0.00400831
0.290983
0.000285593
0.778076
-0.0123898
1.14357
-0.0283151
1.42325
-0.0449935
1.68394
-0.0622801
1.94287
-0.07959
2.21939
-0.0949869
2.52481
-0.105487
2.85372
-0.107114
3.20275
-0.0935554
2.99199
-0.0709288
2.3525
-0.0461112
1.87125
-0.0230715
1.49621
-0.00159302
1.18481
0.0123244
0.898752
0.0152415
0.614468
0.0100613
0.351205
0.00305638
0.152375
0.0306988
0.00254687
0.288436
-0.000752108
0.781375
-0.012301
1.15512
-0.0269997
1.43794
-0.04259
1.69953
-0.0587583
1.95903
-0.0751572
2.23579
-0.0897923
2.53945
-0.0990059
2.86293
-0.0969449
3.20069
-0.0833092
2.97836
-0.0651551
2.33434
-0.0455432
1.85164
-0.0242683
1.47494
-0.00700819
1.16755
0.00444879
0.887295
0.00833747
0.610579
0.00512877
0.354414
0.00178465
0.155719
0.0324834
9.15807e-06
0.288427
-0.00326855
0.784653
-0.0135142
1.16537
-0.0265731
1.451
-0.0414202
1.71438
-0.0570852
1.9747
-0.0730881
2.25179
-0.0878265
2.55418
-0.0988316
2.87394
-0.101485
3.20334
-0.0914919
2.96837
-0.0721365
2.31499
-0.0501393
1.82965
-0.0327889
1.45759
-0.0165945
1.15135
-0.00596039
0.876661
-0.00166303
0.606282
-0.000787447
0.353538
-0.000121682
0.155053
0.0323617
-0.000626908
0.289054
-0.00568286
0.789709
-0.0153433
1.17503
-0.0275902
1.46325
-0.0416732
1.72846
-0.0567886
1.98981
-0.0726909
2.2677
-0.0878369
2.56933
-0.0987509
2.88485
-0.100006
3.2046
-0.0898471
2.95821
-0.0755338
2.30068
-0.0591689
1.81328
-0.0396562
1.43808
-0.0257469
1.13744
-0.0147221
0.865636
-0.0075067
0.599066
-0.00462533
0.350657
-0.00131574
0.151743
0.031046
-0.0025678
0.291621
-0.00770604
0.794847
-0.0167863
1.18411
-0.0283933
1.47486
-0.0420142
1.74208
-0.0569687
2.00477
-0.0728821
2.28361
-0.0882235
2.58467
-0.100497
2.89713
-0.106853
3.21095
-0.0999015
2.95126
-0.0823818
2.28316
-0.0630627
1.79396
-0.0484972
1.42351
-0.0333025
1.12225
-0.0218327
0.854166
-0.013973
0.591207
-0.0067346
0.343419
-0.00195635
0.146965
0.0290896
-0.00389375
0.295515
-0.00948555
0.800439
-0.0184881
1.19311
-0.0297781
1.48615
-0.0428579
1.75516
-0.057361
2.01927
-0.0732354
2.29948
-0.0892711
2.60071
-0.103021
2.91088
-0.108908
3.21684
-0.101705
2.94405
-0.0893514
2.2708
-0.0737918
1.7784
-0.0554362
1.40515
-0.040929
1.10774
-0.0281244
0.841362
-0.0174082
0.58049
-0.00921979
0.33523
-0.00263884
0.140384
0.0264508
-0.00437561
0.299891
-0.0106037
0.806667
-0.0195231
1.20203
-0.03043
1.49705
-0.0431847
1.76792
-0.0575946
2.03368
-0.0736685
2.31556
-0.0903159
2.61736
-0.105152
2.92571
-0.114438
3.22613
-0.113604
2.94322
-0.100011
2.25721
-0.0802298
1.75862
-0.063472
1.3884
-0.046681
1.09095
-0.0332179
0.827899
-0.0217691
0.569042
-0.0100038
0.323465
-0.00274076
0.133121
0.02371
-0.00448648
0.304377
-0.0114049
0.813586
-0.0204915
1.21112
-0.031254
1.50782
-0.0436777
1.78034
-0.057784
2.04779
-0.0738613
2.33164
-0.0909426
2.63444
-0.107187
2.94196
-0.119216
3.23815
-0.11834
2.94234
-0.107262
2.24613
-0.0912959
1.74265
-0.0696822
1.36678
-0.0523703
1.07364
-0.0365251
0.812054
-0.0222953
0.554812
-0.0107444
0.311914
-0.00266326
0.12504
0.0210468
-0.00454397
0.308921
-0.0118144
0.820856
-0.0207861
1.22009
-0.0312882
1.51832
-0.0435305
1.79258
-0.0575594
2.06182
-0.0736967
2.34777
-0.0912905
2.65203
-0.10884
2.95951
-0.122589
3.2519
-0.126264
2.94602
-0.117039
2.23691
-0.0970569
1.72267
-0.0769488
1.34668
-0.0554268
1.05212
-0.0382807
0.794907
-0.0240189
0.54055
-0.0100596
0.297955
-0.00221812
0.117199
0.0188286
-0.00461624
0.313537
-0.0120781
0.828318
-0.0210097
1.22902
-0.0313932
1.5287
-0.0433846
1.80457
-0.0571229
2.07556
-0.0731683
2.36382
-0.0911148
2.66998
-0.109795
2.97819
-0.126597
3.26871
-0.13321
2.95263
-0.12489
2.22859
-0.108967
1.70675
-0.0840434
1.32175
-0.0597666
1.02784
-0.0367909
0.771932
-0.0186928
0.522452
-0.0077473
0.287009
-0.00130759
0.110759
0.017521
-0.00466491
0.318202
-0.0121199
0.835773
-0.0207743
1.23768
-0.0308408
1.53877
-0.0425992
1.81633
-0.0562131
2.08917
-0.0722818
2.37989
-0.0906455
2.68834
-0.110401
2.99794
-0.128531
3.28683
-0.137636
2.96174
-0.133709
2.22466
-0.116022
1.68906
-0.0920048
1.29773
-0.0614229
0.997258
-0.0344221
0.744931
-0.0136458
0.501676
-0.00253495
0.275898
-0.00204695
0.110271
0.0154741
-0.00463045
0.322833
-0.0119973
0.84314
-0.0204834
1.24616
-0.0303468
1.54863
-0.0418105
1.8278
-0.0551309
2.10249
-0.0710373
2.39579
-0.0894789
2.70678
-0.109755
3.01822
-0.130249
3.30733
-0.143411
2.9749
-0.142407
2.22365
-0.129375
1.67603
-0.101519
1.26988
-0.0663105
0.962049
-0.0255408
0.704161
0.0115255
0.464609
0.0289748
0.258449
0.0231962
0.116049
0.0386703
-0.00451812
0.327351
-0.011742
0.850364
-0.0199008
1.25432
-0.0293715
1.5581
-0.0405095
1.83893
-0.0536187
2.1156
-0.069396
2.41157
-0.0879505
2.72534
-0.109157
3.03942
-0.131341
3.32951
-0.145711
2.98927
-0.150147
2.22809
-0.137276
1.66316
-0.112195
1.2448
-0.0699711
0.919826
-0.0230918
0.657282
0.0266674
0.41485
0.0407631
0.244353
0.0177688
0.139044
0.0564391
-0.00431421
0.331665
-0.0113299
0.857379
-0.0192579
1.26225
-0.0284513
1.5673
-0.0392734
1.84976
-0.0520227
2.12835
-0.0675215
2.42707
-0.0860215
2.74384
-0.107436
3.06084
-0.130676
3.35275
-0.149564
3.00816
-0.156647
2.23517
-0.152216
1.65873
-0.127294
1.21987
-0.0849474
0.877479
-0.0137209
0.586055
0.0891
0.312029
0.178534
0.154919
0.177823
0.139755
0.234262
-0.00416931
0.335834
-0.011096
0.864306
-0.0189028
1.27006
-0.0280197
1.57641
-0.0390079
1.86074
-0.0522463
2.14159
-0.0686567
2.44348
-0.0886952
2.76388
-0.112964
3.08511
-0.141222
3.38101
-0.164605
3.03154
-0.178586
2.24915
-0.176245
1.65639
-0.157384
1.20101
-0.1122
0.832295
-0.0619092
0.535765
-0.0946304
0.34475
-0.361266
0.421554
-0.934514
0.713003
0.897101
-1.59735
-0.00396228
0.339797
-0.0106584
0.871002
-0.0183106
1.27771
-0.0273391
1.58544
-0.0382386
1.87164
-0.0515281
2.15488
-0.0682751
2.46023
-0.0891927
2.78479
-0.115033
3.11095
-0.146
3.41198
-0.175871
3.06141
-0.195399
2.26868
-0.210519
1.67151
-0.206069
1.19656
-0.191454
0.817681
-0.273913
0.618223
-0.691301
0.762139
-1.42594
1.15619
-2.03722
1.32428
1.21851
-2.35862
-0.00375801
0.343555
-0.0102137
0.877458
-0.0175834
1.28508
-0.0263459
1.5942
-0.037096
1.88239
-0.0504851
2.16827
-0.067604
2.47735
-0.0893296
2.80652
-0.117148
3.13877
-0.152731
3.44756
-0.187662
3.09634
-0.217676
2.2987
-0.235585
1.68942
-0.237577
1.19856
-0.324985
0.905089
-0.750966
1.0442
-1.5255
1.53667
-2.10034
1.73103
-2.34216
1.56611
1.33382
-2.45748
-0.0035348
0.34709
-0.00961802
0.883541
-0.0167437
1.2922
-0.0253522
1.60281
-0.0359504
1.89299
-0.0493164
2.18163
-0.0666593
2.49469
-0.0891642
2.82902
-0.118512
3.16811
-0.156597
3.48564
-0.19833
3.13807
-0.233095
2.33346
-0.27023
1.72655
-0.358795
1.28712
-0.69493
1.24122
-1.42456
1.77383
-2.01921
2.13133
-2.26095
1.97277
-2.37539
1.68054
1.39934
-2.44091
-0.0032779
0.350367
-0.00901221
0.889275
-0.0157766
1.29897
-0.024048
1.61108
-0.0344869
1.90343
-0.0478588
2.195
-0.0654328
2.51226
-0.0885706
2.85216
-0.119671
3.19921
-0.162542
3.52852
-0.211132
3.18666
-0.260453
2.38278
-0.310065
1.77616
-0.488432
1.46549
-1.08485
1.83764
-1.776
2.46498
-2.10308
2.45841
-2.25355
2.12324
-2.33651
1.76351
1.46517
-2.40235
-0.00318024
0.353548
-0.00876351
0.894859
-0.0155339
1.30574
-0.0239216
1.61947
-0.0346243
1.91413
-0.0482335
2.20861
-0.0662649
2.53029
-0.090347
2.87624
-0.122995
3.23186
-0.168072
3.57359
-0.223045
3.24164
-0.274308
2.43404
-0.368749
1.87061
-0.751664
1.8484
-1.48005
2.56602
-1.95981
2.94474
-2.16117
2.65976
-2.26823
2.23031
-2.34542
1.8407
1.52937
-2.40962
-0.00326794
0.356816
-0.00915153
0.900742
-0.0162449
1.31283
-0.0249832
1.62821
-0.0361656
1.92532
-0.050453
2.2229
-0.0693599
2.5492
-0.0945804
2.90146
-0.129235
3.26652
-0.179559
3.62392
-0.239283
3.30136
-0.307966
2.50273
-0.497632
2.06027
-1.04055
2.39132
-1.66905
3.19452
-1.95054
3.22623
-2.0989
2.80813
-2.21369
2.3451
-2.3076
1.93461
1.59177
-2.37
-0.00327663
0.360092
-0.00937872
0.906844
-0.0169307
1.32038
-0.0262569
1.63754
-0.0379965
1.93706
-0.0529003
2.2378
-0.0726373
2.56894
-0.0991621
2.92799
-0.135601
3.30296
-0.187383
3.6757
-0.251993
3.36597
-0.34287
2.5936
-0.620837
2.33824
-1.25368
3.02416
-1.74851
3.68935
-1.95751
3.43523
-2.09951
2.95012
-2.22455
2.47014
-2.33672
2.04678
1.65099
-2.39594
-0.00325679
0.363349
-0.00971878
0.913306
-0.0176808
1.32835
-0.0274146
1.64727
-0.0396695
1.94931
-0.0553187
2.25345
-0.0759816
2.5896
-0.103625
2.95563
-0.141887
3.34122
-0.198356
3.73217
-0.269064
3.43668
-0.394224
2.71877
-0.772371
2.71639
-1.4008
3.65259
-1.76018
4.04873
-1.93515
3.61021
-2.03919
3.05415
-2.12989
2.56085
-2.19915
2.11603
1.64451
-2.19267
-0.00313726
0.366486
-0.00972713
0.919896
-0.0182114
1.33683
-0.0286453
1.6577
-0.0415639
1.96223
-0.0578616
2.26975
-0.0793677
2.61111
-0.108345
2.98461
-0.148455
3.38133
-0.205031
3.78874
-0.284401
3.51605
-0.454297
2.88866
-0.899297
3.16139
-1.45438
4.20767
-1.72045
4.31481
-1.87618
3.76593
-1.97151
3.14948
-1.97536
2.5647
-1.91004
2.0507
1.61526
-1.88079
-0.00286322
0.36935
-0.00988597
0.926919
-0.0187438
1.34569
-0.0294797
1.66844
-0.0427813
1.97553
-0.0595742
2.28654
-0.0815148
2.63305
-0.110679
3.01377
-0.150919
3.42157
-0.208426
3.84625
-0.296223
3.60384
-0.49766
3.0901
-0.976305
3.64003
-1.42195
4.65332
-1.59285
4.48571
-1.66201
3.83509
-1.66856
3.15604
-1.52312
2.41926
-1.02477
1.55235
0.590492
-0.0024636
0.371813
-0.00943474
0.93389
-0.0188455
1.3551
-0.0305038
1.6801
-0.044885
1.98991
-0.0628818
2.30454
-0.0865551
2.65672
-0.118448
3.04567
-0.162753
3.46587
-0.225009
3.90851
-0.327253
3.70609
-0.578936
3.34178
-1.11044
4.17154
-1.47535
5.01823
-1.57669
4.58705
-1.57674
3.83514
-1.47632
3.05562
-1.23853
2.18146
-0.64044
0.954263
-0.0499478
-0.00198532
0.373798
-0.00911539
0.94102
-0.0188761
1.36486
-0.0310066
1.69223
-0.0461959
2.0051
-0.065558
2.3239
-0.0911001
2.68226
-0.125386
3.07995
-0.173536
3.51402
-0.243694
3.97866
-0.367196
3.82959
-0.673618
3.6482
-1.225
4.72292
-1.49397
5.28719
-1.55599
4.64907
-1.53697
3.81611
-1.3367
2.85535
-0.79317
1.63794
-0.113639
0.274733
-0.163587
-0.00125938
0.375058
-0.00783294
0.947594
-0.0179642
1.37499
-0.0310506
1.70531
-0.0472716
2.02132
-0.0677508
2.34438
-0.0949542
2.70947
-0.132029
3.11703
-0.183823
3.56582
-0.260333
4.05517
-0.404905
3.97416
-0.768239
4.01154
-1.3041
5.25879
-1.48724
5.47032
-1.51844
4.68028
-1.43458
3.73225
-1.11158
2.53235
-0.323008
0.849365
0.0282575
-0.0765331
-0.135329
-0.000473044
0.375531
-0.0064559
0.953577
-0.0167306
1.38526
-0.0301307
1.71871
-0.0469285
2.03812
-0.0686777
2.36613
-0.0976591
2.73845
-0.136793
3.15616
-0.191354
3.62038
-0.277017
4.14084
-0.449838
4.14698
-0.872534
4.43424
-1.34587
5.73213
-1.46683
5.59128
-1.47338
4.68684
-1.26128
3.52014
-0.704694
1.97577
-0.0661506
0.210821
0.0325048
-0.175189
-0.102824
0.00127543
0.374255
-0.00328485
0.958137
-0.0137777
1.39576
-0.0282041
1.73314
-0.0457813
2.0557
-0.0684166
2.38877
-0.0986629
2.76869
-0.139982
3.19748
-0.196967
3.67736
-0.29026
4.23413
-0.485892
4.34262
-0.956502
4.90485
-1.34137
6.117
-1.41131
5.66122
-1.37295
4.64848
-1.08558
3.23276
-0.341853
1.23205
-0.00403119
-0.127
0.0114988
-0.190719
-0.0913255
0.00320507
0.37105
0.000467663
0.960874
-0.0102558
1.40648
-0.0245252
1.74741
-0.0421314
2.0733
-0.0657771
2.41241
-0.0973202
2.80024
-0.139899
3.24006
-0.199477
3.73694
-0.300778
4.33543
-0.521126
4.56296
-1.01792
5.40164
-1.30176
6.40083
-1.34249
5.70195
-1.21856
4.52455
-0.800392
2.8146
-0.0891021
0.520756
0.0448044
-0.260907
0.0257879
-0.171702
-0.0655376
0.0055501
0.3655
0.00443536
0.961989
-0.00472237
1.41564
-0.018863
1.76155
-0.0368744
2.09132
-0.0608656
2.4364
-0.0928126
2.83218
-0.13652
3.28377
-0.197524
3.79795
-0.304669
4.44258
-0.547584
4.80588
-1.03015
5.88421
-1.22939
6.60006
-1.24759
5.72015
-1.04358
4.32054
-0.478786
2.2498
0.000493302
0.0414773
0.013143
-0.273557
0.0156868
-0.174246
-0.0498508
0.00838561
0.357115
0.00991671
0.960458
0.00282785
1.42273
-0.00995182
1.77433
-0.0276823
2.10905
-0.0518375
2.46056
-0.0839586
2.86431
-0.127277
3.32708
-0.189382
3.86005
-0.302388
4.55558
-0.562972
5.06646
-1.008
6.32924
-1.13851
6.73057
-1.12485
5.70649
-0.881672
4.07736
-0.290905
1.65903
-0.064216
-0.185212
-0.0374886
-0.300284
-0.0104207
-0.201314
-0.0602715
0.0124733
0.344641
0.0183334
0.954598
0.0137813
1.42728
0.00253453
1.78558
-0.0158498
2.12743
-0.0389492
2.48366
-0.069685
2.89504
-0.112261
3.36966
-0.173136
3.92093
-0.287189
4.66964
-0.549079
5.32835
-0.930355
6.71052
-1.00614
6.80635
-0.956278
5.65663
-0.702228
3.82331
-0.139173
1.09598
-0.0693208
-0.255064
-0.0433738
-0.326231
-0.0156594
-0.229028
-0.0759309
0.0178411
0.3268
0.0291745
0.943264
0.0277735
1.42868
0.018033
1.79532
0.0020668
2.1434
-0.0188172
2.50454
-0.0478801
2.9241
-0.0877672
3.40955
-0.145977
3.97913
-0.258194
4.78185
-0.502549
5.57271
-0.810792
7.01876
-0.863241
6.8588
-0.776981
5.57037
-0.468971
3.5153
-0.0128783
0.639887
0.01031
-0.278252
0.0039906
-0.319912
0.00252557
-0.227563
-0.0734053
0.024618
0.302182
0.0435989
0.924284
0.0472018
1.42508
0.0399037
1.80262
0.0271172
2.15618
0.00832852
2.52333
-0.0176785
2.95011
-0.0533549
3.44522
-0.105716
4.0315
-0.207194
4.88333
-0.412468
5.77798
-0.63044
7.23673
-0.683631
6.91199
-0.584639
5.47138
-0.238667
3.16933
0.0808187
0.320402
0.0611027
-0.258536
0.0554346
-0.314244
0.044247
-0.216375
-0.0291584
0.0330868
0.269096
0.0618478
0.895523
0.0720968
1.41483
0.0699654
1.80475
0.0613796
2.16477
0.045753
2.53896
0.0240693
2.9718
-0.00609771
3.47539
-0.0509524
4.07635
-0.13003
4.96241
-0.28963
5.93758
-0.425163
7.37226
-0.473177
6.96001
-0.45583
5.45403
-0.231091
2.94459
-0.135947
0.225258
-0.105894
-0.288589
-0.0313281
-0.38881
0.0305297
-0.278233
0.00137134
0.0425958
0.2265
0.0844631
0.853655
0.104419
1.39487
0.1081
1.80107
0.103869
2.169
0.0931
2.54973
0.0785864
2.98631
0.057196
3.49678
0.0240139
4.10953
-0.0177528
5.00417
-0.100772
6.0206
-0.179276
7.45077
-0.251766
7.0325
-0.364848
5.56711
-0.39822
2.97797
-0.618887
0.445925
-0.603287
-0.304189
-0.419818
-0.572279
-0.199843
-0.498209
-0.198471
0.0527421
0.173758
0.111562
0.794836
0.144909
1.36153
0.157104
1.78887
0.15983
2.16627
0.154756
2.5548
0.147803
2.99326
0.138017
3.50657
0.126347
4.1212
0.112361
5.01816
0.139298
5.99366
0.166841
7.42323
0.111342
7.088
-0.0401859
5.71864
-0.371409
3.30919
-0.773592
0.848108
-0.824719
-0.253062
-0.638443
-0.758555
-0.335694
-0.800957
-0.534166
0.0567731
0.116985
0.140061
0.711548
0.192621
1.30897
0.217042
1.76445
0.228149
2.15517
0.230726
2.55222
0.233652
2.99034
0.237838
3.50238
0.250323
4.10872
0.277907
4.99058
0.425731
5.84584
0.617312
7.23164
0.738519
6.96679
0.82014
5.63702
0.493662
3.63567
-0.0746397
1.41641
-0.455837
0.128135
-0.555711
-0.65868
-0.300446
-1.05622
-0.834611
0.0506347
0.0663499
0.167519
0.594664
0.249781
1.2267
0.290138
1.72409
0.311772
2.13353
0.324128
2.53987
0.336657
2.97781
0.35615
3.48289
0.396859
4.06801
0.48371
4.90373
0.773157
5.55639
1.30157
6.70323
1.71728
6.55108
2.05586
5.29844
1.91156
3.77996
1.2849
2.04307
0.728784
0.684254
0.256997
-0.186894
0.0371636
-0.836389
-0.797448
0.0372325
0.0291174
0.195515
0.436381
0.309574
1.11264
0.375991
1.65768
0.411261
2.09826
0.435677
2.51545
0.456358
2.95712
0.490162
3.44909
0.558138
4.00003
0.702047
4.75982
1.09991
5.15853
1.82774
5.97541
2.24477
6.13405
2.47721
5.066
2.42097
3.8362
1.97393
2.49011
1.46646
1.19173
0.981156
0.298408
0.384234
-0.239467
-0.413213
0.0305192
-0.00140185
0.215836
0.251065
0.383744
0.944735
0.476703
1.56472
0.525275
2.04969
0.562495
2.47823
0.591995
2.92763
0.637873
3.40321
0.716319
3.92159
0.876851
4.59928
1.2424
4.79298
1.97851
5.23929
2.36897
5.74359
2.58136
4.85361
2.55868
3.85888
2.19516
2.85363
1.59226
1.79463
0.974116
0.916552
0.410317
0.324332
-0.00289637
0.0279871
-0.0293889
0.187995
0.0910563
0.43906
0.693671
0.588807
1.41497
0.659373
1.97913
0.704586
2.43302
0.740445
2.89177
0.780229
3.36342
0.842268
3.85955
0.969301
4.47225
1.18828
4.57401
1.77865
4.64892
2.15335
5.36889
2.23159
4.77537
2.16037
3.9301
1.899
3.115
1.42284
2.27079
0.898
1.44139
0.389938
0.832394
0.387041
0.0203159
-0.0497048
0.115187
-0.00381457
0.394827
0.41403
0.581338
1.22846
0.666263
1.8942
0.695216
2.40406
0.706174
2.88081
0.698533
3.37106
0.690968
3.86711
0.698816
4.4644
0.750292
4.52253
0.979033
4.42018
1.21222
5.1357
1.20743
4.78017
1.12862
4.0089
0.983591
3.26003
0.746874
2.50751
0.460118
1.72815
0.185329
1.10718
0.572371
0.0110657
-0.0607705
0.061847
-0.0545958
0.247769
0.228108
0.416693
1.05954
0.50392
1.80697
0.535434
2.37255
0.552967
2.86328
0.550547
3.37348
0.54427
3.87339
0.537618
4.47106
0.550065
4.51008
0.690792
4.27945
0.872584
4.95391
0.874226
4.77853
0.799411
4.08371
0.686644
3.3728
0.52109
2.67306
0.312315
1.93692
0.116291
1.30321
0.688662
0.0255063
-0.0862768
0.0633266
-0.0924162
0.134667
0.156768
0.253402
0.940801
0.331053
1.72932
0.37165
2.33195
0.396691
2.83824
0.408489
3.36169
0.413211
3.86867
0.411701
4.47257
0.403496
4.51829
0.476615
4.20633
0.605409
4.82511
0.608784
4.77515
0.541155
4.15134
0.450225
3.46373
0.333186
2.7901
0.191263
2.07884
0.0594733
1.435
0.748135
0.026084
-0.112361
0.0452366
-0.111569
0.0355979
0.166406
0.092497
0.883901
0.157109
1.66471
0.211095
2.27797
0.249278
2.80005
0.27777
3.3332
0.297146
3.84929
0.301845
4.46787
0.288408
4.53173
0.320349
4.17439
0.40186
4.7436
0.400047
4.77697
0.346967
4.20442
0.274036
3.53666
0.186571
2.87757
0.0862034
2.17921
0.00500176
1.5162
0.753137
0.00971679
-0.122078
-0.00537965
-0.0964725
-0.0514659
0.212493
-0.0508422
0.883278
-0.00102648
1.6149
0.0556306
2.22131
0.109457
2.74623
0.155497
3.28716
0.189442