/*--------------------------------*- C++ -*----------------------------------*\
| =========                 |                                                 |
| \\      /  F ield         | OpenFOAM: The Open Source CFD Toolbox           |
|  \\    /   O peration     | Version:  v2012                                 |
|   \\  /    A nd           | Website:  www.openfoam.com                      |
|    \\/     M anipulation  |                                                 |
\*---------------------------------------------------------------------------*/
FoamFile
{
    version     2.0;
    format      ascii;
    class       volVectorField;
    location    "38";
    object      U;
}
// * * * * * * * * * * * * * * * * * * * * * * * * * * * * * * * * * * * * * //

dimensions      [0 1 -1 0 0 0 0];


internalField   nonuniform List<vector> 
2200
(
(0.878834 -0.0304163 0)
(1.00578 -0.051289 0)
(1.00328 -0.0354131 0)
(1.00027 -0.0244829 0)
(0.999873 -0.0167238 0)
(1.00001 -0.0107785 0)
(0.999993 -0.00689035 0)
(1.00001 -0.00423829 0)
(1.00002 -0.00228129 0)
(1.00017 -0.000719909 0)
(1.00005 0.000914024 0)
(1.00001 0.0024702 0)
(0.999985 0.00441527 0)
(0.999998 0.00703492 0)
(1.00004 0.0109133 0)
(0.999837 0.0167243 0)
(1.00019 0.0244682 0)
(1.00345 0.0350611 0)
(1.00591 0.0513608 0)
(0.878965 0.0303414 0)
(0.71197 -0.0327641 0)
(0.99661 -0.0630249 0)
(1.03324 -0.0561806 0)
(1.02481 -0.0464099 0)
(1.01586 -0.0361234 0)
(1.00969 -0.0264473 0)
(1.00593 -0.018162 0)
(1.00374 -0.0114343 0)
(1.00252 -0.00603421 0)
(1.00197 -0.00158442 0)
(1.00196 0.00259449 0)
(1.00244 0.0069738 0)
(1.00366 0.0122136 0)
(1.00591 0.0188488 0)
(1.00953 0.0270237 0)
(1.01569 0.0367536 0)
(1.02474 0.0471524 0)
(1.03305 0.0574952 0)
(0.996632 0.0631416 0)
(0.711787 0.032971 0)
(0.535526 -0.023896 0)
(0.96986 -0.0569504 0)
(1.05644 -0.0547174 0)
(1.05226 -0.0487951 0)
(1.03616 -0.0404413 0)
(1.02441 -0.0322787 0)
(1.01599 -0.0240969 0)
(1.01045 -0.0162859 0)
(1.00725 -0.00904766 0)
(1.00578 -0.00244605 0)
(1.00574 0.00395559 0)
(1.00713 0.0105471 0)
(1.01028 0.0177207 0)
(1.01561 0.0253473 0)
(1.02408 0.0332671 0)
(1.03597 0.0412747 0)
(1.05202 0.0493359 0)
(1.05636 0.0537298 0)
(0.969234 0.0575529 0)
(0.534477 0.0239251 0)
(0.392117 -0.0136743 0)
(0.911589 -0.0464517 0)
(1.0574 -0.0470697 0)
(1.06943 -0.0444196 0)
(1.05481 -0.0382797 0)
(1.03921 -0.0315473 0)
(1.02743 -0.0247678 0)
(1.01895 -0.0175694 0)
(1.01356 -0.010108 0)
(1.01086 -0.0025512 0)
(1.01075 0.00495147 0)
(1.01327 0.0123182 0)
(1.01847 0.0194366 0)
(1.02676 0.0262917 0)
(1.03846 0.0328219 0)
(1.05409 0.0393129 0)
(1.06856 0.0454389 0)
(1.05582 0.0480546 0)
(0.91016 0.0468873 0)
(0.390248 0.0137474 0)
(0.307473 -0.00451084 0)
(0.846597 -0.0323877 0)
(1.0494 -0.0399332 0)
(1.07952 -0.0381963 0)
(1.06828 -0.0335956 0)
(1.0517 -0.0279982 0)
(1.03821 -0.0226605 0)
(1.02804 -0.016703 0)
(1.02106 -0.00988293 0)
(1.01733 -0.00238648 0)
(1.01711 0.00533167 0)
(1.02051 0.012623 0)
(1.02719 0.0191502 0)
(1.03728 0.0248956 0)
(1.05059 0.0299138 0)
(1.06693 0.0353007 0)
(1.07785 0.0397153 0)
(1.04738 0.0413813 0)
(0.843454 0.0328501 0)
(0.304359 0.00468875 0)
(0.263991 0.000104105 0)
(0.788639 -0.0200923 0)
(1.03305 -0.0315332 0)
(1.0833 -0.0321942 0)
(1.07716 -0.0289972 0)
(1.06075 -0.0242004 0)
(1.04711 -0.0196917 0)
(1.03625 -0.0145746 0)
(1.02844 -0.00854313 0)
(1.024 -0.00153572 0)
(1.02371 0.0058148 0)
(1.02762 0.0125369 0)
(1.03509 0.0181875 0)
(1.04543 0.0228542 0)
(1.05886 0.0268412 0)
(1.07525 0.0312086 0)
(1.08097 0.033907 0)
(1.02994 0.0330599 0)
(0.783696 0.0206379 0)
(0.259695 8.31005e-05 0)
(0.239965 0.00104612 0)
(0.737822 -0.0123648 0)
(1.01326 -0.025163 0)
(1.08369 -0.0270009 0)
(1.08262 -0.0247844 0)
(1.06747 -0.0207431 0)
(1.05404 -0.0168456 0)
(1.04325 -0.0123434 0)
(1.03515 -0.00703708 0)
(1.03029 -0.000780233 0)
(1.02985 0.00581359 0)
(1.03393 0.0117395 0)
(1.04143 0.0166132 0)
(1.05192 0.0205686 0)
(1.06516 0.0241923 0)
(1.07983 0.0276125 0)
(1.08027 0.0293105 0)
(1.0082 0.0268808 0)
(0.730203 0.0130144 0)
(0.234224 -0.000865841 0)
(0.225489 0.000948028 0)
(0.694739 -0.00808673 0)
(0.9925 -0.0208439 0)
(1.08179 -0.0233064 0)
(1.08645 -0.0214642 0)
(1.07297 -0.0179691 0)
(1.05965 -0.0142266 0)
(1.04912 -0.00999945 0)
(1.04119 -0.00514016 0)
(1.03625 0.000458404 0)
(1.03567 0.00627312 0)
(1.03956 0.011498 0)
(1.04662 0.0156554 0)
(1.05657 0.0192559 0)
(1.06942 0.0220795 0)
(1.08232 0.0249507 0)
(1.07655 0.0260233 0)
(0.984852 0.0228919 0)
(0.684198 0.00891957 0)
(0.218219 -0.00075478 0)
(0.21586 0.000625552 0)
(0.659216 -0.00567608 0)
(0.971719 -0.0176653 0)
(1.07887 -0.0203132 0)
(1.08962 -0.0188088 0)
(1.07764 -0.0157166 0)
(1.06432 -0.0121918 0)
(1.05402 -0.00820835 0)
(1.04632 -0.00367585 0)
(1.04142 0.00141368 0)
(1.0406 0.00668117 0)
(1.04405 0.0113099 0)
(1.05075 0.0151072 0)
(1.06021 0.0182037 0)
(1.07319 0.0211463 0)
(1.08429 0.0234309 0)
(1.07213 0.0241563 0)
(0.961298 0.0203283 0)
(0.644849 0.00678612 0)
(0.206509 -0.00039232 0)
(0.208627 0.00029224 0)
(0.630526 -0.00423746 0)
(0.952704 -0.0150622 0)
(1.07557 -0.018074 0)
(1.09264 -0.0168339 0)
(1.08214 -0.0140213 0)
(1.06862 -0.0105247 0)
(1.05813 -0.00666931 0)
(1.05043 -0.00223469 0)
(1.04571 0.00262723 0)
(1.04473 0.00764967 0)
(1.0476 0.0118173 0)
(1.05381 0.0153024 0)
(1.0633 0.0181941 0)
(1.07603 0.0206396 0)
(1.08531 0.0225083 0)
(1.06558 0.0225926 0)
(0.937593 0.0182247 0)
(0.611398 0.00555189 0)
(0.196789 -1.76994e-05 0)
(0.202751 6.79802e-05 0)
(0.607195 -0.00314444 0)
(0.934711 -0.012668 0)
(1.07228 -0.0158338 0)
(1.09567 -0.0148325 0)
(1.08663 -0.0122278 0)
(1.07293 -0.00890001 0)
(1.06209 -0.00513696 0)
(1.05407 -0.000826439 0)
(1.04897 0.00390564 0)
(1.04745 0.00869289 0)
(1.05008 0.0127628 0)
(1.05637 0.0158607 0)
(1.06594 0.0183562 0)
(1.07881 0.0205068 0)
(1.08616 0.0219007 0)
(1.05955 0.0215022 0)
(0.915226 0.0164422 0)
(0.582682 0.00476611 0)
(0.187906 0.000259681 0)
(0.198166 2.39095e-05 0)
(0.588962 -0.00217242 0)
(0.918684 -0.00999074 0)
(1.06885 -0.0132552 0)
(1.09872 -0.0125169 0)
(1.09105 -0.0101287 0)
(1.07723 -0.00683972 0)
(1.06617 -0.0031722 0)
(1.05794 0.00112009 0)
(1.05273 0.00571647 0)
(1.05114 0.0100533 0)
(1.05334 0.0136871 0)
(1.05914 0.0165723 0)
(1.06849 0.0187621 0)
(1.08108 0.0205088 0)
(1.08613 0.0212919 0)
(1.05107 0.0202369 0)
(0.892288 0.0147071 0)
(0.557519 0.00419123 0)
(0.179611 0.000415283 0)
(0.195006 2.98511e-05 0)
(0.575388 -0.00129617 0)
(0.905357 -0.00759385 0)
(1.06584 -0.0105593 0)
(1.10139 -0.00969997 0)
(1.0954 -0.00744285 0)
(1.08176 -0.00449875 0)
(1.07043 -0.00100632 0)
(1.0617 0.0030762 0)
(1.05564 0.00747129 0)
(1.05316 0.0115345 0)
(1.05512 0.014921 0)
(1.06113 0.0173587 0)
(1.07049 0.0189861 0)
(1.08232 0.0201282 0)
(1.08551 0.0204906 0)
(1.04365 0.0192228 0)
(0.871533 0.0132597 0)
(0.535863 0.00375979 0)
(0.17196 0.00047559 0)
(0.193074 5.35353e-05 0)
(0.565425 -0.000647763 0)
(0.893038 -0.00550428 0)
(1.06311 -0.00817158 0)
(1.10474 -0.00710243 0)
(1.09989 -0.00455984 0)
(1.0862 -0.00133945 0)
(1.07452 0.00209828 0)
(1.06518 0.00592774 0)
(1.05856 0.0100587 0)
(1.05599 0.0138129 0)
(1.05777 0.0165041 0)
(1.06305 0.0181468 0)
(1.07205 0.0193459 0)
(1.08354 0.0199839 0)
(1.08401 0.0203913 0)
(1.03295 0.0185152 0)
(0.849222 0.0122164 0)
(0.515581 0.0035922 0)
(0.164518 0.000536392 0)
(0.19255 -1.41694e-05 0)
(0.558655 4.68127e-05 0)
(0.884998 -0.00307387 0)
(1.0617 -0.00525604 0)
(1.108 -0.0039505 0)
(1.1046 -0.00128187 0)
(1.09106 0.00206929 0)
(1.07909 0.00556907 0)
(1.06923 0.00931073 0)
(1.06169 0.0130248 0)
(1.05795 0.0161695 0)
(1.05923 0.0181945 0)
(1.06491 0.019351 0)
(1.07378 0.0199519 0)
(1.08402 0.020777 0)
(1.08228 0.0204402 0)
(1.02449 0.0181946 0)
(0.830124 0.0116229 0)
(0.497945 0.00354653 0)
(0.157411 0.000592959 0)
(0.193343 -6.04169e-05 0)
(0.556985 0.00112535 0)
(0.878416 -0.000874198 0)
(1.06092 -0.00236359 0)
(1.11236 -0.00085041 0)
(1.10995 0.00209845 0)
(1.09615 0.00562225 0)
(1.08386 0.00928279 0)
(1.07371 0.0129557 0)
(1.06588 0.0165185 0)
(1.06174 0.0192963 0)
(1.0618 0.0208758 0)
(1.06569 0.0214794 0)
(1.0742 0.0217819 0)
(1.0835 0.0217854 0)
(1.07865 0.0208548 0)
(1.01158 0.0179413 0)
(0.807908 0.0109888 0)
(0.47991 0.00349288 0)
(0.149942 0.000630632 0)
(0.195947 0.000415923 0)
(0.558198 0.00172023 0)
(0.875849 0.00200696 0)
(1.06166 0.00122484 0)
(1.11624 0.00302098 0)
(1.11495 0.00581767 0)
(1.10104 0.00943789 0)
(1.08816 0.013123 0)
(1.07733 0.0172129 0)
(1.0685 0.0209984 0)
(1.06287 0.0235938 0)
(1.06187 0.02456 0)
(1.06602 0.0245868 0)
(1.07422 0.0240842 0)
(1.08221 0.0230934 0)
(1.07511 0.0214104 0)
(1.00112 0.0179686 0)
(0.789807 0.0106211 0)
(0.464586 0.00350219 0)
(0.142984 0.000641216 0)
(0.200508 0.000692833 0)
(0.562361 0.002709 0)
(0.877414 0.00448024 0)
(1.06337 0.00469194 0)
(1.12084 0.00713685 0)
(1.12035 0.0103563 0)
(1.10582 0.0139816 0)
(1.09198 0.0181471 0)
(1.08009 0.0222305 0)
(1.07004 0.0259313 0)
(1.06339 0.0281644 0)
(1.06141 0.0289161 0)
(1.06407 0.0282055 0)
(1.07182 0.026898 0)
(1.07907 0.0253324 0)
(1.06793 0.0230069 0)
(0.985074 0.018384 0)
(0.766799 0.0105479 0)
(0.446971 0.00369111 0)
(0.13518 0.000681142 0)
(0.208271 0.000857171 0)
(0.572524 0.00418111 0)
(0.883255 0.00754259 0)
(1.06795 0.00964149 0)
(1.12592 0.0125134 0)
(1.12598 0.0157488 0)
(1.1111 0.020115 0)
(1.09642 0.0244404 0)
(1.08313 0.0288664 0)
(1.07129 0.0327559 0)
(1.06318 0.0345886 0)
(1.06024 0.034128 0)
(1.06289 0.0324416 0)
(1.06997 0.0301943 0)
(1.0754 0.027507 0)
(1.06105 0.0242817 0)
(0.972139 0.0189669 0)
(0.749017 0.0109553 0)
(0.432049 0.004034 0)
(0.12777 0.000711605 0)
(0.217523 0.00106302 0)
(0.586514 0.0053623 0)
(0.893782 0.0108361 0)
(1.07488 0.0143847 0)
(1.13232 0.0179451 0)
(1.13302 0.0224133 0)
(1.11766 0.0270459 0)
(1.10232 0.0322128 0)
(1.08799 0.0369179 0)
(1.07447 0.0403573 0)
(1.06387 0.0411408 0)
(1.05873 0.0401725 0)
(1.05892 0.0377536 0)
(1.06477 0.0346326 0)
(1.06932 0.0314405 0)
(1.05072 0.0269731 0)
(0.953048 0.0205072 0)
(0.724374 0.011909 0)
(0.412379 0.00457002 0)
(0.118575 0.000756146 0)
(0.23109 0.00146699 0)
(0.608185 0.0071727 0)
(0.911131 0.014944 0)
(1.08565 0.0203609 0)
(1.14074 0.0250894 0)
(1.14117 0.0297337 0)
(1.12514 0.0355957 0)
(1.10856 0.0413019 0)
(1.09243 0.0466072 0)
(1.07668 0.0504309 0)
(1.06431 0.0511694 0)
(1.05809 0.0490335 0)
(1.05762 0.0450167 0)
(1.06186 0.0403788 0)
(1.063 0.0357648 0)
(1.04013 0.0300558 0)
(0.936651 0.022842 0)
(0.704722 0.0136687 0)
(0.39448 0.00533737 0)
(0.109434 0.000810855 0)
(0.2474 0.0020306 0)
(0.633732 0.00878338 0)
(0.933162 0.0188333 0)
(1.09984 0.0263809 0)
(1.15092 0.0323546 0)
(1.15093 0.0393774 0)
(1.13323 0.0461445 0)
(1.11478 0.0528699 0)
(1.09634 0.0586544 0)
(1.07788 0.0619741 0)
(1.0622 0.0613077 0)
(1.05257 0.057453 0)
(1.04954 0.052684 0)
(1.05276 0.0472514 0)
(1.05378 0.0421941 0)
(1.02609 0.0353688 0)
(0.913231 0.0265203 0)
(0.674756 0.0160924 0)
(0.368427 0.00621155 0)
(0.0973702 0.000894027 0)
(0.270149 0.00286192 0)
(0.66844 0.012598 0)
(0.962043 0.0252553 0)
(1.11865 0.0353285 0)
(1.16442 0.043429 0)
(1.16239 0.0514559 0)
(1.14249 0.0598202 0)
(1.12124 0.0674338 0)
(1.09946 0.0734926 0)
(1.07758 0.0764683 0)
(1.05951 0.075189 0)
(1.04946 0.0705158 0)
(1.04624 0.0637844 0)
(1.04761 0.0563033 0)
(1.04347 0.0493691 0)
(1.01026 0.0409449 0)
(0.890603 0.0310058 0)
(0.648192 0.0189741 0)
(0.343451 0.0072573 0)
(0.085224 0.000960945 0)
(0.301763 0.00375832 0)
(0.714536 0.015549 0)
(1.00041 0.0329352 0)
(1.14342 0.0462379 0)
(1.18152 0.0561352 0)
(1.17674 0.0675254 0)
(1.15318 0.0773627 0)
(1.12858 0.0858404 0)
(1.10333 0.0917712 0)
(1.07786 0.0936056 0)
(1.05569 0.08996 0)
(1.04076 0.0822804 0)
(1.03382 0.0739527 0)
(1.03378 0.0657114 0)
(1.0306 0.0581896 0)
(0.991732 0.0485741 0)
(0.859998 0.0363025 0)
(0.607976 0.0220574 0)
(0.307567 0.0080397 0)
(0.0695372 0.000963338 0)
(0.338098 0.0072396 0)
(0.772064 0.0246811 0)
(1.0472 0.0454825 0)
(1.17389 0.0625355 0)
(1.20343 0.0756933 0)
(1.19318 0.089081 0)
(1.16511 0.0999276 0)
(1.13617 0.108575 0)
(1.10641 0.113867 0)
(1.07635 0.11435 0)
(1.05067 0.109156 0)
(1.0352 0.100367 0)
(1.02902 0.0905475 0)
(1.02741 0.079809 0)
(1.01604 0.0693905 0)
(0.968015 0.0570201 0)
(0.826616 0.0425293 0)
(0.569827 0.025391 0)
(0.274049 0.00910987 0)
(0.0548929 0.000868677 0)
(0.41914 0.0108931 0)
(0.857608 0.0355847 0)
(1.10944 0.0657001 0)
(1.21184 0.0873907 0)
(1.22888 0.101817 7.10663e-34)
(1.21143 0.118193 -3.1713e-34)
(1.17695 0.129063 0)
(1.14294 0.136894 0)
(1.10844 0.140434 0)
(1.07424 0.138523 0)
(1.0446 0.129966 0)
(1.02418 0.117876 0)
(1.01262 0.10495 0)
(1.00754 0.092776 0)
(0.997313 0.081693 0)
(0.941318 0.0675615 0)
(0.783546 0.0492228 0)
(0.514306 0.0289841 0)
(0.225187 0.00915932 0)
(0.0357342 0.000720443 0)
(0.489386 0.0261306 5.43369e-20)
(0.956895 0.0591501 -4.10362e-20)
(1.17601 0.0993251 0)
(1.25031 0.124057 3.12251e-20)
(1.25627 0.140333 -2.53097e-20)
(1.22865 0.157226 3.34595e-34)
(1.18766 0.166296 0)
(1.14813 0.1723 1.74784e-20)
(1.10806 0.173758 -5.72015e-20)
(1.06795 0.169316 1.16259e-20)
(1.03343 0.158528 0)
(1.01147 0.144374 -2.9136e-20)
(1.00172 0.130808 -3.47809e-20)
(0.996644 0.116854 6.07812e-20)
(0.971283 0.100817 -4.79873e-20)
(0.895541 0.0808359 0)
(0.720004 0.0577297 -1.73533e-20)
(0.442597 0.0316613 0)
(0.171355 0.0102608 -9.548e-20)
(0.0178854 0.000895715 1.12639e-19)
(0.523559 0.0538583 -7.06877e-21)
(1.01701 0.102621 1.27253e-19)
(1.22336 0.149168 -8.38566e-21)
(1.28294 0.171398 -8.00178e-20)
(1.27989 0.188748 -5.36204e-20)
(1.24337 0.20354 8.70887e-20)
(1.19634 0.210189 0)
(1.15115 0.21398 0)
(1.10544 0.212971 9.12209e-20)
(1.0605 0.205964 0)
(1.0217 0.192078 1.05781e-19)
(0.994047 0.175855 3.12608e-20)
(0.974698 0.159172 3.58621e-22)
(0.956623 0.140884 -6.64805e-20)
(0.931316 0.123722 0)
(0.851589 0.102716 0)
(0.668411 0.0729345 -2.84348e-19)
(0.397861 0.0415304 7.12272e-19)
(0.153186 0.0133508 -4.22705e-19)
(0.011536 0.0017131 -4.98586e-19)
(0.530177 0.0764387 -7.98079e-20)
(1.05237 0.159203 2.96338e-20)
(1.25842 0.210041 1.53019e-20)
(1.30871 0.230413 1.40264e-19)
(1.29812 0.245531 1.42388e-20)
(1.25467 0.255766 -2.27835e-19)
(1.20247 0.258753 7.70176e-20)
(1.15188 0.259648 0)
(1.10075 0.256017 -1.93342e-19)
(1.04964 0.246231 1.70032e-19)
(1.00435 0.229993 -2.85493e-19)
(0.972268 0.211478 1.33603e-19)
(0.95147 0.192174 -8.61668e-20)
(0.936954 0.175252 1.94203e-19)
(0.90037 0.155182 0)
(0.813443 0.127755 -7.10281e-20)
(0.637128 0.0926621 0)
(0.387502 0.0517272 3.93338e-19)
(0.153965 0.0207409 -9.33905e-19)
(0.0156341 0.00167376 5.84994e-19)
(0.522301 0.1082 2.43836e-19)
(1.06849 0.215664 -1.05013e-19)
(1.27831 0.274974 -2.1546e-20)
(1.32536 0.294595 0)
(1.30979 0.307192 -1.02697e-19)
(1.26159 0.312198 1.26236e-19)
(1.20509 0.310687 -8.23934e-20)
(1.14978 0.307835 0)
(1.0937 0.300204 1.37477e-19)
(1.03792 0.286129 -1.19617e-19)
(0.989409 0.266834 2.47478e-19)
(0.952277 0.245221 0)
(0.924391 0.225396 -1.83167e-19)
(0.897059 0.204215 1.03342e-19)
(0.864703 0.182827 2.60318e-19)
(0.78536 0.156934 -2.29013e-19)
(0.622555 0.117644 3.66447e-19)
(0.389241 0.0706986 -8.11071e-19)
(0.168845 0.0306214 5.12317e-19)
(0.0252897 0.0045405 -6.41032e-19)
(0.509782 0.132419 -9.84465e-20)
(1.07481 0.270166 7.11337e-20)
(1.28827 0.341037 -7.1048e-20)
(1.33376 0.359695 1.34875e-19)
(1.31476 0.369844 -1.23367e-19)
(1.2635 0.370071 4.05809e-20)
(1.20377 0.364399 3.65695e-21)
(1.14449 0.357648 -1.58424e-19)
(1.08414 0.346229 -1.44434e-19)
(1.02377 0.32937 -2.57004e-19)
(0.969349 0.305965 -5.32052e-19)
(0.927459 0.281175 -1.63221e-19)
(0.898717 0.25881 2.41318e-21)
(0.877827 0.239346 -3.53007e-19)
(0.836767 0.21715 -6.31093e-21)
(0.755593 0.185013 3.329e-19)
(0.603635 0.141791 -1.00665e-19)
(0.389436 0.0894275 -5.85769e-20)
(0.181888 0.0421425 0)
(0.0342702 0.00812169 1.36103e-18)
(0.491781 0.152885 0)
(1.06738 0.319494 -1.14776e-20)
(1.28972 0.404202 0)
(1.33559 0.423598 -1.26559e-20)
(1.3141 0.432226 1.2172e-19)
(1.26093 0.428089 -9.34317e-20)
(1.19901 0.418406 9.0409e-20)
(1.13686 0.407634 2.59501e-19)
(1.0736 0.392132 -8.01423e-20)
(1.0093 0.369782 1.27909e-19)
(0.950756 0.342155 2.85956e-19)
(0.90677 0.316155 3.55374e-19)
(0.873438 0.292482 -2.13328e-19)
(0.839259 0.267777 3.81603e-19)
(0.805557 0.244812 -3.01981e-19)
(0.73623 0.216569 0)
(0.597687 0.169127 -7.63296e-19)
(0.396592 0.111375 1.02745e-18)
(0.195464 0.0556168 7.66944e-20)
(0.0425453 0.012407 -1.43483e-18)
(0.477397 0.173265 -5.136e-21)
(1.05878 0.367738 -6.49794e-22)
(1.28611 0.464922 1.40713e-19)
(1.33239 0.485054 -1.32315e-19)
(1.30902 0.492463 9.7684e-20)
(1.25455 0.484683 -9.18998e-20)
(1.19089 0.471644 1.80695e-19)
(1.12627 0.457252 -7.92523e-20)
(1.05926 0.437967 -3.24398e-19)
(0.990417 0.412784 2.12762e-22)
(0.928931 0.38387 -3.09935e-19)
(0.881638 0.351852 -3.81253e-19)
(0.846455 0.325423 2.34699e-19)
(0.823009 0.30227 -1.37024e-19)
(0.78328 0.279057 3.27124e-19)
(0.711585 0.242905 0)
(0.58177 0.194698 -4.72148e-19)
(0.396631 0.131576 6.97286e-19)
(0.203795 0.0685254 1.32252e-18)
(0.0481068 0.0164571 -1.55596e-18)
(0.462798 0.1907 2.80948e-20)
(1.0454 0.412108 -2.13084e-20)
(1.27858 0.522486 -8.83146e-20)
(1.32539 0.544086 1.38303e-19)
(1.30047 0.550642 1.1676e-20)
(1.24519 0.539584 -1.82204e-19)
(1.18046 0.523462 -1.03569e-19)
(1.11421 0.505739 -9.9124e-20)
(1.04578 0.482719 -1.81701e-19)
(0.976614 0.453257 2.92738e-19)
(0.912383 0.416319 3.14459e-19)
(0.861984 0.383874 6.0529e-19)
(0.825058 0.355507 0)
(0.7878 0.329233 5.98122e-21)
(0.755782 0.303159 -8.9547e-19)
(0.694815 0.273643 2.08361e-19)
(0.57458 0.220331 1.01722e-18)
(0.397618 0.152819 -2.99939e-19)
(0.208871 0.080649 6.26566e-19)
(0.0516292 0.020064 -5.22961e-20)
(0.453557 0.20933 5.88926e-21)
(1.03362 0.455078 6.31323e-21)
(1.26869 0.577064 -5.01835e-20)
(1.31581 0.599884 1.75904e-19)
(1.28956 0.605674 -2.20871e-19)
(1.23368 0.591946 1.82948e-19)
(1.16809 0.573237 1.07459e-19)
(1.10041 0.552445 2.98339e-19)
(1.02932 0.526101 3.67423e-19)
(0.95426 0.492987 -3.35294e-19)
(0.885664 0.454897 0)
(0.835025 0.418296 -2.27483e-19)
(0.799168 0.386499 2.61172e-19)
(0.77432 0.360991 3.27601e-19)
(0.734621 0.334649 -1.89405e-19)
(0.66994 0.296259 -4.61973e-19)
(0.555216 0.243824 -1.3809e-19)
(0.388985 0.169586 -1.43093e-21)
(0.205618 0.0904784 0)
(0.0519145 0.0220706 0)
(0.44527 0.224912 -3.32994e-20)
(1.02112 0.495286 0)
(1.25733 0.628756 -3.78238e-20)
(1.30425 0.653361 2.56108e-21)
(1.27685 0.658381 2.45799e-19)
(1.22054 0.641985 -6.34138e-20)
(1.15431 0.620892 1.09331e-19)
(1.08535 0.5975 -2.0288e-19)
(1.01274 0.568339 2.78994e-19)
(0.937975 0.531648 -1.07825e-19)
(0.871205 0.488894 1.79431e-19)
(0.817174 0.448667 7.21017e-19)
(0.775344 0.416876 1.38307e-20)
(0.738887 0.384951 -3.41794e-19)
(0.707671 0.355977 6.31209e-19)
(0.652377 0.324125 4.33568e-21)
(0.544023 0.264512 1.47737e-19)
(0.381061 0.185679 -7.05483e-19)
(0.199132 0.0973485 7.22181e-19)
(0.0498403 0.0235829 -8.55381e-19)
(0.438981 0.243933 3.14445e-23)
(1.00944 0.533614 0)
(1.24491 0.677158 0)
(1.29145 0.703461 -1.76617e-20)
(1.26311 0.707777 -7.69094e-20)
(1.20646 0.689326 8.85777e-20)
(1.13972 0.666328 -2.07944e-19)
(1.06995 0.640508 0)
(0.996046 0.608561 -4.10393e-19)
(0.918166 0.569126 4.84221e-19)
(0.843939 0.523978 5.08527e-19)
(0.788123 0.479644 -2.64331e-19)
(0.751373 0.441415 -3.18157e-19)
(0.724142 0.413197 7.45193e-19)
(0.687746 0.384323 -2.24118e-19)
(0.627867 0.340557 -2.67707e-19)
(0.522977 0.282528 -1.60468e-19)
(0.368052 0.197017 -7.60228e-19)
(0.190741 0.101604 1.10004e-19)
(0.0463587 0.0242399 9.22962e-19)
(0.435452 0.26234 -2.13567e-20)
(0.998771 0.570101 -2.28411e-20)
(1.23192 0.723004 2.34481e-20)
(1.27774 0.751234 -1.22081e-22)
(1.24858 0.754879 -6.63801e-20)
(1.19171 0.734272 1.52717e-19)
(1.1247 0.709324 0)
(1.05423 0.681479 1.21284e-19)
(0.978751 0.64736 -9.56342e-20)
(0.898553 0.60522 8.07205e-19)
(0.824649 0.554581 -1.16281e-19)
(0.769987 0.50716 1.31287e-19)
(0.726494 0.469833 0)
(0.690159 0.434048 -4.0306e-19)
(0.660344 0.400065 4.87084e-19)
(0.609361 0.364536 0)
(0.508357 0.296558 -3.4645e-19)
(0.352865 0.206761 1.01805e-18)
(0.179916 0.103747 1.1993e-19)
(0.041847 0.0239792 -1.13577e-18)
(0.433462 0.279156 -6.05833e-20)
(0.988786 0.604542 7.83618e-20)
(1.21872 0.765766 0)
(1.26374 0.795644 -2.03587e-20)
(1.23387 0.798692 0)
(1.17684 0.776486 -1.8843e-19)
(1.10954 0.750123 0)
(1.03818 0.720393 0)
(0.961101 0.68423 -1.24023e-19)
(0.879144 0.639607 -7.66546e-19)
(0.803136 0.587951 -9.38106e-19)
(0.741736 0.538408 1.5261e-19)
(0.700594 0.493114 5.48699e-19)
(0.674976 0.458065 4.42949e-19)
(0.639516 0.425083 -1.56282e-18)
(0.58374 0.374436 -6.28214e-19)
(0.484116 0.309326 3.67515e-19)
(0.335179 0.211364 0)
(0.168233 0.104056 1.03211e-18)
(0.0371115 0.0227929 -1.22357e-18)
(0.432168 0.294808 7.74476e-20)
(0.979377 0.637226 -9.53136e-20)
(1.20562 0.806086 0)
(1.24957 0.837851 -1.07137e-20)
(1.21905 0.840429 1.46394e-20)
(1.16183 0.816515 0)
(1.09421 0.788557 6.33883e-20)
(1.02225 0.757312 8.23266e-20)
(0.944192 0.719431 -2.35481e-19)
(0.860068 0.673036 1.02426e-19)
(0.779218 0.6174 0)
(0.717919 0.562169 6.32435e-19)
(0.676228 0.51756 4.67612e-21)
(0.638631 0.475541 2.38886e-19)
(0.610778 0.434121 2.83548e-19)
(0.563058 0.393647 0)
(0.467256 0.316225 -6.02836e-19)
(0.317432 0.21502 1.18347e-18)
(0.155933 0.102637 -1.25264e-18)
(0.0324845 0.0212122 2.63548e-18)
(0.431123 0.309872 0)
(0.970557 0.668389 0)
(1.19289 0.843671 -4.2731e-20)
(1.23563 0.876935 0)
(1.20446 0.879068 0)
(1.14707 0.853964 -1.66895e-19)
(1.07928 0.824955 6.51257e-20)
(1.0067 0.79223 1.74719e-20)
(0.927468 0.753094 -5.45519e-20)
(0.841599 0.705102 0)
(0.760316 0.647914 -1.41928e-19)
(0.696073 0.592469 -5.15485e-19)
(0.64788 0.539146 -6.19021e-19)
(0.622072 0.495055 -2.48308e-19)
(0.589281 0.455484 3.07588e-19)
(0.536835 0.396108 -7.25566e-19)
(0.441289 0.323038 1.29737e-18)
(0.297746 0.213576 3.66953e-21)
(0.143732 0.099763 -1.20294e-18)
(0.0284013 0.0194077 -1.77873e-19)
(0.430174 0.3246 0)
(0.962251 0.698084 -8.06678e-20)
(1.18045 0.879081 5.61143e-20)
(1.22183 0.914021 0)
(1.19008 0.915847 0)
(1.13258 0.88945 3.3983e-19)
(1.06464 0.859206 0)
(0.991636 0.825294 0)
(0.911125 0.784732 -5.16432e-19)
(0.822485 0.735163 1.39354e-19)
(0.735235 0.676 -1.26185e-18)
(0.666566 0.61442 0)
(0.622981 0.561328 -6.69857e-19)
(0.583738 0.51096 1.09087e-20)
(0.55703 0.457931 -9.87045e-19)
(0.513712 0.409245 3.90635e-19)
(0.42425 0.321156 2.28486e-21)
(0.282099 0.211464 -1.36795e-18)
(0.133603 0.0959578 6.4881e-19)
(0.0246808 0.017619 1.90368e-19)
(0.429313 0.338964 0)
(0.954616 0.726483 -1.22352e-19)
(1.16854 0.912272 5.92508e-20)
(1.20853 0.948356 4.8452e-20)
(1.1762 0.949763 -2.74677e-20)
(1.11863 0.922493 3.62153e-20)
(1.05064 0.89153 -4.35341e-20)
(0.97704 0.856559 5.12248e-19)
(0.895308 0.815226 5.52437e-19)
(0.805397 0.765318 1.06755e-18)
(0.719147 0.705609 1.04857e-18)
(0.649617 0.643425 1.83257e-19)
(0.592871 0.583506 9.63615e-19)
(0.564033 0.527232 5.93266e-19)
(0.532501 0.476415 7.08614e-19)
(0.4857 0.401526 -4.28152e-19)
(0.39756 0.318611 -5.0054e-19)
(0.26497 0.200069 5.86e-19)
(0.125572 0.0922383 -3.47551e-19)
(0.0254466 0.0213818 6.16275e-19)
(0.428513 0.352866 1.78432e-19)
(0.947284 0.753225 1.90395e-19)
(1.1569 0.943417 3.60253e-20)
(1.19551 0.980868 1.62733e-20)
(1.16272 0.982027 5.58056e-20)
(1.10511 0.953789 -9.51921e-20)
(1.03703 0.921904 4.28123e-20)
(0.963043 0.886049 -2.0751e-20)
(0.880351 0.843704 -6.42737e-19)
(0.78862 0.792577 -1.15732e-18)
(0.695778 0.73099 7.3073e-20)
(0.616956 0.665997 0)
(0.567443 0.605053 0)
(0.52182 0.544034 -3.0914e-19)
(0.493695 0.472252 -1.15714e-18)
(0.456612 0.406395 9.22358e-19)
(0.383643 0.296613 5.48553e-19)
(0.26894 0.182185 0)
(0.136588 0.0686946 1.10839e-18)
(0.0191389 -0.00296829 -6.59473e-19)
(0.427794 0.366132 -9.43446e-20)
(0.940539 0.778754 8.416e-20)
(1.14585 0.972723 -9.04992e-20)
(1.1831 1.01097 -6.14883e-20)
(1.14984 1.01167 3.95294e-21)
(1.0922 0.982775 -2.95141e-20)
(1.02417 0.950464 0)
(0.949882 0.913966 -6.44221e-19)
(0.866485 0.871281 7.94268e-20)
(0.77301 0.820532 0)
(0.679704 0.759885 0)
(0.603194 0.695177 1.15841e-19)
(0.535918 0.628509 1.54881e-19)
(0.498531 0.558954 -3.3329e-19)
(0.462873 0.490957 8.30827e-19)
(0.418475 0.386359 -1.00448e-18)
(0.347129 0.277771 -1.17307e-18)
(0.264384 0.158242 1.0378e-18)
(0.183016 0.102264 -3.95786e-19)
(0.11399 0.082616 2.30622e-19)
(0.426944 0.378613 1.22743e-19)
(0.933823 0.802467 0)
(1.135 0.999999 0)
(1.17101 1.03936 -1.44595e-20)
(1.1374 1.03985 1.1706e-20)
(1.07982 1.01022 -2.09685e-20)
(1.01184 0.977242 1.84099e-19)
(0.937337 0.940167 6.64873e-19)
(0.853026 0.896836 1.16761e-18)
(0.758021 0.845039 -8.64075e-20)
(0.660459 0.782956 1.77435e-19)
(0.572046 0.717402 -1.03694e-18)
(0.510931 0.65167 -1.02683e-18)
(0.452012 0.580769 -1.78444e-19)
(0.410307 0.48368 0)
(0.373436 0.392754 -9.58271e-21)
(0.316354 0.215264 6.43268e-19)
(0.276916 0.0575715 -1.08805e-18)
(0.237184 -0.0717588 8.27888e-19)
(0.0813598 -0.0959282 6.88894e-19)
(0.426073 0.390599 -2.72809e-19)
(0.927586 0.825222 -1.2466e-19)
(1.12471 1.02591 6.8423e-21)
(1.15945 1.06586 4.33282e-20)
(1.12543 1.06594 0)
(1.06787 1.03587 -1.28202e-19)
(1.00001 1.00279 -2.60298e-19)
(0.925354 0.965489 1.61995e-21)
(0.840591 0.922247 -6.12684e-19)
(0.744036 0.871502 -8.47535e-20)
(0.644701 0.812084 7.87204e-20)
(0.55898 0.748461 9.10496e-19)
(0.478026 0.679161 1.00248e-18)
(0.425 0.597922 1.7328e-19)
(0.373649 0.514387 8.85145e-19)
(0.302127 0.3675 0)
(0.18753 0.202361 0)
(0.0163851 0.227871 7.52057e-19)
(-0.0757215 0.629056 -3.16256e-20)
(0.00476264 1.52787 -9.17211e-19)
(0.42499 0.40195 1.51507e-19)
(0.921303 0.846355 3.41663e-19)
(1.11451 1.05008 -4.53109e-19)
(1.14809 1.09115 2.10841e-19)
(1.11374 1.09127 2.61088e-21)
(1.05623 1.06084 -9.08935e-20)
(0.988399 1.0275 0)
(0.913499 0.990127 -5.57446e-19)
(0.827786 0.946906 0)
(0.729675 0.895706 1.20376e-18)
(0.62665 0.835122 -9.4517e-20)
(0.528502 0.772033 1.05979e-19)
(0.455092 0.708218 1.14201e-18)
(0.371931 0.636689 -3.74435e-19)
(0.282065 0.518311 -4.51176e-19)
(0.205003 0.426264 0)
(0.0960476 0.532406 0)
(0.0290308 1.30444 0)
(0.0740478 2.45199 -4.27785e-19)
(0.102664 2.90532 -2.62232e-19)
(0.423797 0.41273 0)
(0.915514 0.866688 0)
(1.1049 1.07325 1.66589e-19)
(1.1373 1.11491 -1.69205e-19)
(1.10253 1.1148 5.70782e-20)
(1.04501 1.08425 9.28783e-20)
(0.97728 1.05124 3.29604e-20)
(0.902295 1.01418 -2.56626e-20)
(0.816332 0.971723 8.55982e-20)
(0.716978 0.922624 -1.38158e-18)
(0.611531 0.866703 1.72273e-19)
(0.517457 0.808708 9.05405e-19)
(0.419317 0.744805 -1.13862e-18)
(0.344169 0.658193 -1.24073e-18)
(0.270084 0.581847 4.18173e-19)
(0.198461 0.708524 0)
(0.129594 1.53386 5.84365e-19)
(0.129208 2.68558 6.49491e-19)
(0.136996 3.08529 -7.26575e-19)
(0.128126 3.22094 7.86488e-19)
(0.422374 0.423046 0)
(0.909618 0.885302 3.11472e-19)
(1.09538 1.09462 -4.14057e-20)
(1.12677 1.13745 2.50656e-19)
(1.09168 1.13761 -5.99128e-20)
(1.03422 1.10703 0)
(0.966523 1.07407 0)
(0.891319 1.03736 0)
(0.804507 0.995516 4.92084e-19)
(0.70375 0.946714 6.46655e-20)
(0.595747 0.88991 0)
(0.488738 0.83223 -9.01466e-19)
(0.40674 0.776897 0)
(0.295195 0.71109 8.88908e-19)
(0.210062 0.782797 -5.96367e-19)
(0.161578 1.4566 -4.8058e-19)
(0.163902 2.67416 -1.13533e-18)
(0.184789 3.12655 -6.00802e-19)
(0.175408 3.26876 -8.26709e-19)
(0.160901 3.30926 6.44725e-19)
(0.420971 0.432561 -1.10113e-19)
(0.904247 0.903293 1.54047e-20)
(1.08649 1.11527 -4.67352e-20)
(1.11684 1.1587 -1.90994e-19)
(1.08134 1.15881 0)
(1.02386 1.12835 0)
(0.956247 1.09603 0)
(0.881045 1.05999 3.86429e-20)
(0.79419 1.01943 -6.21119e-19)
(0.692608 0.973543 0)
(0.582069 0.922886 0)
(0.483009 0.873615 0)
(0.368145 0.818237 0)
(0.3065 0.801373 6.48101e-19)
(0.275922 1.17696 1.59269e-18)
(0.258028 2.36771 4.73582e-19)
(0.269499 3.08284 9.61993e-19)
(0.263589 3.28606 -7.40386e-19)
(0.214096 3.35249 2.75506e-19)
(0.180977 3.36508 0)
(0.419357 0.441727 1.13976e-19)
(0.898512 0.919999 -6.98707e-19)
(1.0774 1.13465 -1.84622e-19)
(1.10691 1.17935 -3.9334e-20)
(1.07115 1.17994 1.31744e-20)
(1.01378 1.1497 -2.26093e-22)
(0.946211 1.11761 -9.16551e-21)
(0.870848 1.08221 -4.53035e-19)
(0.783345 1.04267 0)
(0.680888 0.997774 -8.02531e-20)
(0.570373 0.947202 7.30053e-20)
(0.456979 0.896574 0)
(0.373859 0.858922 0)
(0.321211 0.983739 -8.10146e-19)
(0.281473 1.85102 1.00984e-19)
(0.276938 2.93934 -3.57345e-19)
(0.297513 3.29071 7.47899e-19)
(0.270647 3.39017 5.50201e-19)
(0.204043 3.41494 -7.58223e-19)
(0.178854 3.42408 3.77496e-19)
(0.417492 0.451035 2.26262e-19)
(0.892782 0.937779 6.8544e-19)
(1.06821 1.15525 2.20203e-19)
(1.09679 1.20047 0)
(1.06069 1.20101 0)
(1.00337 1.17088 1.59923e-21)
(0.935994 1.13954 1.14667e-19)
(0.860856 1.10487 4.05113e-19)
(0.773695 1.0668 2.53677e-20)
(0.671161 1.02526 1.04104e-18)
(0.557492 0.981016 -1.2044e-18)
(0.451266 0.938177 0)
(0.370798 0.941283 0)
(0.339893 1.34558 -5.53799e-19)
(0.342281 2.47474 -6.65042e-19)
(0.384771 3.19905 0)
(0.409706 3.37439 -7.65727e-19)
(0.339857 3.43782 4.25556e-20)
(0.268722 3.48215 3.81727e-19)
(0.245532 3.50764 -1.31633e-19)
(0.415099 0.460768 -4.32127e-19)
(0.885876 0.955553 -3.30181e-19)
(1.05777 1.17593 0)
(1.08567 1.22245 0)
(1.04945 1.22348 0)
(0.992414 1.19345 0)
(0.925304 1.16215 -1.30586e-19)
(0.850275 1.12807 3.69475e-19)
(0.762854 1.091 0)
(0.660053 1.05064 -9.48641e-19)
(0.54975 1.00714 2.16314e-18)
(0.440824 0.972278 8.77002e-20)
(0.386426 1.05695 1.14806e-19)
(0.391067 1.7425 9.05367e-19)
(0.408809 2.89433 -4.88435e-19)
(0.446094 3.32399 0)
(0.428603 3.44978 2.15402e-19)
(0.342215 3.53765 9.3789e-20)
(0.263998 3.60276 1.46155e-19)
(0.188677 3.58234 5.06482e-22)
(0.412315 0.470824 2.06436e-19)
(0.878722 0.97532 -3.41527e-19)
(1.04691 1.19884 0)
(1.07394 1.24554 -5.63471e-20)
(1.03749 1.24621 1.87254e-19)
(0.980659 1.21604 0)
(0.914021 1.18537 0)
(0.839625 1.15184 -6.468e-19)
(0.753158 1.11609 -6.2303e-20)
(0.651423 1.07896 9.37061e-19)
(0.534958 1.04149 -1.0289e-18)
(0.447206 1.02527 5.94382e-19)
(0.409367 1.23824 0)
(0.432005 2.17784 -4.80858e-19)
(0.473876 3.14522 3.14004e-19)
(0.535605 3.42913 1.99769e-19)
(0.528683 3.52692 0)
(0.464344 3.61139 -3.43043e-20)
(0.392334 3.65386 -4.09874e-19)