#           x             T        mag(U)             p
       -4.995       348.432   1.08676e-12        100000
       -4.985       348.432   2.53089e-12        100000
       -4.975       348.432   3.77082e-12        100000
       -4.965       348.432   5.12014e-12        100000
       -4.955       348.432   4.87216e-12        100000
       -4.945       348.432   4.05527e-12        100000
       -4.935       348.432   1.69213e-12        100000
       -4.925       348.432   2.77159e-13        100000
       -4.915       348.432   2.33397e-13        100000
       -4.905       348.432   1.31286e-13        100000
       -4.895       348.432   1.04299e-12        100000
       -4.885       348.432   1.25451e-12        100000
       -4.875       348.432   3.13627e-13        100000
       -4.865       348.432   4.74087e-13        100000
       -4.855       348.432   1.82341e-13        100000
       -4.845       348.432   5.10555e-14        100000
       -4.835       348.432   1.18157e-12        100000
       -4.825       348.432   1.89635e-12        100000
       -4.815       348.432   2.36314e-12        100000
       -4.805       348.432   1.96928e-12        100000
       -4.795       348.432   1.67754e-12        100000
       -4.785       348.432   1.41497e-12        100000
       -4.775       348.432   2.20997e-12        100000
       -4.765       348.432   1.44414e-12        100000
       -4.755       348.432   8.53357e-13        100000
       -4.745       348.432   4.74088e-13        100000
       -4.735       348.432   1.71401e-12        100000
       -4.725       348.432   2.20268e-12        100000
       -4.715       348.432   1.63377e-12        100000
       -4.705       348.432   2.44337e-12        100000
       -4.695       348.432   1.81612e-12        100000
       -4.685       348.432   1.93282e-12        100000
       -4.675       348.432    2.4069e-13        100000
       -4.665       348.432   4.81381e-13        100000
       -4.655       348.432    7.0019e-13        100000
       -4.645       348.432   1.02841e-12        100000
       -4.635       348.432   1.38579e-13        100000
       -4.625       348.432    1.2618e-12        100000
       -4.615       348.432   3.60306e-12        100000
       -4.605       348.432     5.514e-12        100000
       -4.595       348.432   7.10401e-12        100000
       -4.585       348.432   7.19883e-12        100000
       -4.575       348.432   6.06831e-12        100000
       -4.565       348.432   5.03262e-12        100000
       -4.555       348.432   4.15738e-12        100000
       -4.545       348.432   4.64606e-12        100000
       -4.535       348.432   5.87869e-12        100000
       -4.525       348.432   7.53434e-12        100000
       -4.515       348.432    7.8042e-12        100000
       -4.505       348.432   5.87138e-12        100000
       -4.495       348.432   4.76275e-12        100000
       -4.485       348.432   5.30249e-12        100000
       -4.475       348.432   6.19231e-12        100000
       -4.465       348.432   5.95161e-12        100000
       -4.455       348.432   5.61611e-12        100000
       -4.445       348.432   6.67369e-12        100000
       -4.435       348.432   7.87714e-12        100000
       -4.425       348.432   7.29365e-12        100000
       -4.415       348.432   7.03837e-12        100000
       -4.405       348.432   5.90057e-12        100000
       -4.395       348.432   6.03185e-12        100000
       -4.385       348.432   7.27177e-12        100000
       -4.375       348.432   8.60651e-12        100000
       -4.365       348.432   8.76697e-12        100000
       -4.355       348.432   7.82609e-12        100000
       -4.345       348.432   5.29519e-12        100000
       -4.335       348.432    4.3616e-12        100000
       -4.325       348.432   4.41996e-12        100000
       -4.315       348.432   5.01803e-12        100000
       -4.305       348.432   6.16313e-12        100000
       -4.295       348.432   8.18348e-12        100000
       -4.285       348.432   9.56924e-12        100000
       -4.275       348.432   9.90477e-12        100000
       -4.265       348.432   8.73779e-12        100000
       -4.255       348.432   7.07484e-12        100000
       -4.245       348.432   7.17695e-12        100000
       -4.235       348.432   8.71591e-12        100000
       -4.225       348.432   9.02954e-12        100000
       -4.215       348.432   7.47599e-12        100000
       -4.205       348.432   6.34547e-12        100000
       -4.195       348.432   5.68904e-12        100000
       -4.185       348.432   6.03914e-12        100000
       -4.175       348.432   8.20536e-12        100000
       -4.165       348.432   9.36505e-12        100000
       -4.155       348.432   8.80344e-12        100000
       -4.145       348.432    6.5497e-12        100000
       -4.135       348.432   4.76275e-12        100000
       -4.125       348.432   5.55047e-12        100000
       -4.115       348.432   7.84796e-12        100000
       -4.105       348.432   9.80994e-12        100000
       -4.095       348.432   1.04955e-11        100000
       -4.085       348.432   8.97848e-12        100000
       -4.075       348.432   6.63722e-12        100000
       -4.065       348.432   4.99615e-12        100000
       -4.055       348.432   5.34625e-12        100000
       -4.045       348.432   4.91592e-12        100000
       -4.035       348.432   5.08368e-12        100000
       -4.025       348.432   5.28061e-12        100000
       -4.015       348.432   5.48483e-12        100000
       -4.005       348.432   5.63069e-12        100000
       -3.995       348.432   5.29519e-12        100000
       -3.985       348.432   4.20114e-12        100000
       -3.975       348.432   2.49443e-12        100000
       -3.965       348.432   4.30326e-13        100000
       -3.955       348.432   8.24183e-13        100000
       -3.945       348.432   3.87293e-12        100000
       -3.935       348.432   6.92167e-12        100000
       -3.925       348.432   8.45334e-12        100000
       -3.915       348.432    8.7305e-12        100000
       -3.905       348.432    9.6495e-12        100000
       -3.895       348.432    9.4234e-12        100000
       -3.885       348.432   9.11706e-12        100000
       -3.875       348.432   8.92014e-12        100000
       -3.865       348.432   8.43876e-12        100000
       -3.855       348.432   8.43876e-12        100000
       -3.845       348.432   8.16889e-12        100000
       -3.835       348.432   7.29365e-12        100000
       -3.825       348.432   6.06103e-12        100000
       -3.815       348.432   4.54394e-12        100000
       -3.805       348.432   4.58771e-12        100000
       -3.795       348.432   5.71822e-12        100000
       -3.785       348.432    7.2353e-12        100000
       -3.775       348.432   8.86179e-12        100000
       -3.765       348.432   9.00766e-12        100000
       -3.755       348.432   8.47522e-12        100000
       -3.745       348.432    6.5497e-12        100000
       -3.735       348.432   5.12744e-12        100000
       -3.725       348.432   5.44836e-12        100000
       -3.715       348.432   6.11208e-12        100000
       -3.705       348.432   7.63646e-12        100000
       -3.695       348.432    8.1543e-12        100000
       -3.685       348.432   8.93472e-12        100000
       -3.675       348.432   9.35776e-12        100000
       -3.665       348.432   1.03642e-11        100000
       -3.655       348.432    9.2994e-12        100000
       -3.645       348.432   7.59269e-12        100000
       -3.635       348.432    6.7758e-12        100000
       -3.625       348.432   6.29442e-12        100000
       -3.615       348.432   6.46947e-12        100000
       -3.605       348.432   6.14855e-12        100000
       -3.595       348.432   5.13473e-12        100000
       -3.585       348.432   6.26525e-12        100000
       -3.575       348.432   6.09749e-12        100000
       -3.565       348.432   5.47754e-12        100000
       -3.555       348.432   5.30248e-12        100000
       -3.545       348.432   4.75546e-12        100000
       -3.535       348.432   5.09097e-12        100000
       -3.525       348.432   4.95968e-12        100000
       -3.515       348.432   5.73281e-12        100000
       -3.505       348.432   6.15584e-12        100000
       -3.495       348.432   5.52858e-12        100000
       -3.485       348.432   4.97427e-12        100000
       -3.475       348.432   4.39808e-12        100000
       -3.465       348.432   3.43531e-12        100000
       -3.455       348.432   3.93128e-12        100000
       -3.445       348.432   5.57235e-12        100000
       -3.435       348.432   7.21342e-12        100000
       -3.425       348.432   5.90786e-12        100000
       -3.415       348.432   4.93051e-12        100000
       -3.405       348.432   6.03185e-12        100000
       -3.395       348.432   7.65104e-12        100000
       -3.385       348.432   9.10247e-12        100000
       -3.375       348.432   8.40957e-12        100000
       -3.365       348.432   6.57158e-12        100000
       -3.355       348.432   5.07638e-12        100000
       -3.345       348.432   3.53742e-12        100000
       -3.335       348.432   3.60306e-12        100000
       -3.325       348.432   3.47178e-12        100000
       -3.315       348.432   5.67446e-12        100000
       -3.305       348.432   6.65181e-12        100000
       -3.295       348.432   5.72551e-12        100000
       -3.285       348.432   3.93128e-12        100000
       -3.275       348.432   4.66065e-12        100000
       -3.265       348.432   5.84951e-12        100000
       -3.255       348.432   6.27254e-12        100000
       -3.245       348.432   5.31707e-12        100000
       -3.235       348.432   2.91017e-12        100000
       -3.225       348.432   1.99846e-12        100000
       -3.215       348.432   2.07869e-12        100000
       -3.205       348.432   2.79347e-12        100000
       -3.195       348.432   4.12091e-12        100000
       -3.185       348.432   5.07638e-12        100000
       -3.175       348.432   4.71899e-12        100000
       -3.165       348.432   4.08444e-12        100000
       -3.155       348.432   4.66064e-12        100000
       -3.145       348.432   5.32436e-12        100000
       -3.135       348.432   6.22877e-12        100000
       -3.125       348.432   4.79922e-12        100000
       -3.115       348.432    2.9904e-12        100000
       -3.105       348.432   2.15162e-12        100000
       -3.095       348.432   2.37773e-12        100000
       -3.085       348.432   3.09251e-12        100000
       -3.075       348.432   3.33319e-12        100000
       -3.065       348.432   4.62418e-12        100000
       -3.055       348.432   4.31055e-12        100000
       -3.045       348.432   3.35508e-12        100000
       -3.035       348.432   2.23185e-12        100000
       -3.025       348.432   3.07792e-12        100000
       -3.015       348.432   5.39001e-12        100000
       -3.005       348.432   6.56429e-12        100000
       -2.995       348.432   6.18501e-12        100000
       -2.985       348.432   3.39154e-12        100000
       -2.975       348.432   9.91937e-13        100000
       -2.965       348.432   3.71976e-13        100000
       -2.955       348.432   2.17351e-12        100000
       -2.945       348.432   5.01803e-12        100000
       -2.935       348.432   7.10401e-12        100000
       -2.925       348.432   5.86409e-12        100000
       -2.915       348.432   4.12821e-12        100000
       -2.905       348.432   3.60306e-12        100000
       -2.895       348.432   5.18579e-12        100000
       -2.885       348.432   6.89979e-12        100000
       -2.875       348.432   5.28061e-12        100000
       -2.865       348.432    4.2522e-12        100000
       -2.855       348.432   1.39309e-12        100000
       -2.845       348.432    3.7927e-13        100000
       -2.835       348.432   1.25451e-12        100000
       -2.825       348.432    3.5666e-12        100000
       -2.815       348.432   5.87868e-12        100000
       -2.805       348.432   6.52053e-12        100000
       -2.795       348.432   5.21496e-12        100000
       -2.785       348.432   2.69865e-12        100000
       -2.775       348.432   4.08444e-13        100000
       -2.765       348.432   6.49135e-13        100000
       -2.755       348.432   1.98388e-12        100000
       -2.745       348.432   2.60383e-12        100000
       -2.735       348.432   9.26292e-13        100000
       -2.725       348.432   1.70671e-12        100000
       -2.715       348.432   2.97581e-12        100000
       -2.705       348.432   9.70055e-13        100000
       -2.695       348.432   1.57543e-12        100000
       -2.685       348.432   3.25296e-12        100000
       -2.675       348.432   3.63954e-12        100000
       -2.665       348.432   2.79347e-12        100000
       -2.655       348.432   2.95393e-12        100000
       -2.645       348.432   4.34701e-12        100000
       -2.635       348.432   5.04721e-12        100000
       -2.625       348.432   4.61688e-12        100000
       -2.615       348.432   1.96929e-12        100000
       -2.605       348.432   4.88674e-13        100000
       -2.595       348.432   1.02111e-13        100000
       -2.585       348.432   1.81612e-12        100000
       -2.575       348.432   1.85988e-12        100000
       -2.565       348.432   2.88099e-12        100000
       -2.555       348.432   3.31861e-12        100000
       -2.545       348.432   2.12974e-12        100000
       -2.535       348.432   3.20921e-13        100000
       -2.525       348.432   2.19539e-12        100000
       -2.515       348.432   3.59577e-12        100000
       -2.505       348.432   3.47177e-12        100000
       -2.495       348.432   3.08521e-12        100000
       -2.485       348.432   2.13704e-12        100000
       -2.475       348.432   4.37619e-13        100000
       -2.465       348.432   3.34049e-12        100000
       -2.455       348.432   4.54395e-12        100000
       -2.445       348.432   3.56659e-12        100000
       -2.435       348.432   2.19539e-12        100000
       -2.425       348.432   7.29365e-13        100000
       -2.415       348.432   6.49135e-13        100000
       -2.405       348.432    2.4069e-13        100000
       -2.395       348.432   1.20346e-12        100000
       -2.385       348.432   3.20191e-12        100000
       -2.375       348.432   4.28866e-12        100000
       -2.365       348.432   4.06257e-12        100000
       -2.355       348.432   2.46525e-12        100000
       -2.345       348.432     4.595e-13        100000
       -2.335       348.432   1.94741e-12        100000
       -2.325       348.432   1.00652e-12        100000
       -2.315       348.432   9.77349e-13        100000
       -2.305       348.432   5.17849e-13        100000
       -2.295       348.432    7.2207e-13        100000
       -2.285       348.432    2.4069e-12        100000
       -2.275       348.432   3.63224e-12        100000
       -2.265       348.432   3.70518e-12        100000
       -2.255       348.432   2.66947e-12        100000
       -2.245       348.432   1.98388e-12        100000
       -2.235       348.432   2.49443e-12        100000
       -2.225       348.432   3.18733e-12        100000
       -2.215       348.432   5.54317e-12        100000
       -2.205       348.432    7.1259e-12        100000
       -2.195       348.432   4.78464e-12        100000
       -2.185       348.432   1.97658e-12        100000
       -2.175       348.432   1.10134e-12        100000
       -2.165       348.432   1.88176e-12        100000
       -2.155       348.432   7.65834e-13        100000
       -2.145       348.432   1.44414e-12        100000
       -2.135       348.432   3.20921e-12        100000
       -2.125       348.432   4.74817e-12        100000
       -2.115       348.432   6.32359e-12        100000
       -2.105       348.432   7.08943e-12        100000
       -2.095       348.432   7.11131e-12        100000
       -2.085       348.432   5.36084e-12        100000
       -2.075       348.432   3.93127e-12        100000
       -2.065       348.432   1.77965e-12        100000
       -2.055       348.432   4.23032e-13        100000
       -2.045       348.432   1.96929e-13        100000
       -2.035       348.432   1.70672e-12        100000
       -2.025       348.432    3.0998e-12        100000
       -2.015       348.432   3.64683e-12        100000
       -2.005       348.432   2.63301e-12        100000
       -1.995       348.432   1.55354e-12        100000
       -1.985       348.432   1.04299e-12        100000
       -1.975       348.432   2.08599e-12        100000
       -1.965       348.432   4.10632e-12        100000
       -1.955       348.432   5.21496e-12        100000
       -1.945       348.432   5.41188e-12        100000
       -1.935       348.432   3.83646e-12        100000
       -1.925       348.432   1.35662e-12        100000
       -1.915       348.432   4.88674e-13        100000
       -1.905       348.432   2.47984e-13        100000
       -1.895       348.432   2.18809e-12        100000
       -1.885       348.432   4.23032e-12        100000
       -1.875       348.432   4.25949e-12        100000
       -1.865       348.432   2.93204e-12        100000
       -1.855       348.432   2.72782e-12        100000
       -1.845       348.432   3.58119e-12        100000
       -1.835       348.432   4.73358e-12        100000
       -1.825       348.432   5.27331e-12        100000
       -1.815       348.432    3.4499e-12        100000
       -1.805       348.432   3.80729e-12        100000
       -1.795       348.432   4.80652e-12        100000
       -1.785       348.432   5.03991e-12        100000
       -1.775       348.432   4.39808e-12        100000
       -1.765       348.432   2.52361e-12        100000
       -1.755       348.432   5.90786e-13        100000
       -1.745       348.432    2.4069e-13        100000
       -1.735       348.432   2.62571e-13        100000
       -1.725       348.432   5.98079e-13        100000
       -1.715       348.432   3.57389e-13        100000
       -1.705       348.432   2.69865e-12        100000
       -1.695       348.432   3.91669e-12        100000
       -1.685       348.432    8.8399e-12        100000
       -1.675       348.432   8.45189e-11        100000
       -1.665       348.432   9.76815e-10        100000
       -1.655       348.432   1.02346e-08        100000
       -1.645       348.432   9.51645e-08        100000
       -1.635       348.432    7.8233e-07        100000
       -1.625       348.432   5.66942e-06        100000
       -1.615       348.432   3.61111e-05        100000
       -1.605       348.432   0.000201544       99999.9
       -1.595       348.432   0.000982531       99999.6
       -1.585        348.43    0.00417036       99998.5
       -1.575       348.427     0.0153636       99994.2
       -1.565       348.414     0.0490014       99981.7
       -1.555       348.382      0.135179       99949.5
       -1.545       348.312       0.32324       99879.2
       -1.535       348.181      0.674565       99748.1
       -1.525       347.968       1.24353       99536.1
       -1.515       347.666       2.05811       99233.2
       -1.505       347.272       3.11395       98841.7
       -1.495       346.799       4.38274         98373
       -1.485       346.263       5.82604       97842.1
       -1.475       345.677       7.40586       97263.9
       -1.465       345.051       9.08994       96650.9
       -1.455       344.397        10.853       96012.5
       -1.445       343.722       12.6762       95356.3
       -1.435        343.03       14.5455       94687.4
       -1.425       342.326       16.4506       94009.8
       -1.415       341.612        18.384       93326.6
       -1.405        340.89       20.3401       92639.6
       -1.395       340.163       22.3143       91950.6
       -1.385        339.43       24.3034       91260.9
       -1.375       338.694       26.3048       90571.4
       -1.365       337.955       28.3162       89882.9
       -1.355       337.214       30.3362       89196.1
       -1.345       336.471       32.3632       88511.4
       -1.335       335.727       34.3963       87829.1
       -1.325       334.981       36.4346       87149.6
       -1.315       334.236       38.4773       86473.2
       -1.305       333.489       40.5238         85800
       -1.295       332.741       42.5737       85130.3
       -1.285       331.994       44.6265         84464
       -1.275       331.246       46.6819       83801.4
       -1.265       330.499       48.7396       83142.5
       -1.255       329.751       50.7994       82487.5
       -1.245       329.004       52.8609       81836.2
       -1.235       328.257       54.9241       81188.9
       -1.225        327.51       56.9888       80545.5
       -1.215       326.764       59.0548       79906.1
       -1.205       326.018       61.1219       79270.6
       -1.195       325.273       63.1902       78639.3
       -1.185       324.528       65.2595       78011.8
       -1.175       323.784       67.3297       77388.4
       -1.165       323.039       69.4006         76769
       -1.155       322.296       71.4724       76153.7
       -1.145       321.553       73.5448       75542.4
       -1.135       320.812       75.6179       74935.1
       -1.125        320.07       77.6916       74331.9
       -1.115       319.329       79.7658       73732.5
       -1.105       318.589       81.8406       73137.3
       -1.095        317.85       83.9157       72546.1
       -1.085       317.111       85.9913       71958.8
       -1.075       316.373       88.0673       71375.4
       -1.065       315.636       90.1437         70796
       -1.055       314.899       92.2204       70220.6
       -1.045       314.164       94.2974       69649.1
       -1.035       313.429       96.3746       69081.6
       -1.025       312.695       98.4522       68517.9
       -1.015       311.962        100.53         67958
       -1.005       311.228       102.608       67402.1
       -0.995       310.496       104.686         66850
       -0.985       309.765       106.765       66301.7
       -0.975       309.036       108.843       65757.3
       -0.965       308.306       110.922       65216.5
       -0.955       307.577       113.001       64679.7
       -0.945       306.849        115.08       64146.5
       -0.935       306.122       117.159       63617.1
       -0.925       305.396       119.239       63091.4
       -0.915       304.671       121.318       62569.5
       -0.905       303.946       123.398       62051.2
       -0.895       303.222       125.477       61536.5
       -0.885         302.5       127.557       61025.6
       -0.875       301.778       129.637       60518.2
       -0.865       301.056       131.716       60014.4
       -0.855       300.336       133.796       59514.3
       -0.845       299.616       135.876       59017.6
       -0.835       298.898       137.956       58524.6
       -0.825        298.18       140.036         58035
       -0.815       297.463       142.116         57549
       -0.805       296.747       144.196       57066.5
       -0.795       296.031       146.276       56587.4
       -0.785       295.317       148.355       56111.8
       -0.775       294.603       150.435       55639.6
       -0.765       293.891       152.515       55170.8
       -0.755       293.179       154.595       54705.5
       -0.745       292.469       156.675       54243.5
       -0.735       291.759       158.755       53784.9
       -0.725       291.049       160.834       53329.6
       -0.715       290.341       162.914       52877.6
       -0.705       289.634       164.994       52428.9
       -0.695       288.927       167.073       51983.5
       -0.685       288.221       169.152       51541.4
       -0.675       287.517       171.232       51102.5
       -0.665       286.814       173.311       50666.9
       -0.655        286.11        175.39       50234.5
       -0.645       285.408       177.469       49805.1
       -0.635       284.707       179.548       49379.1
       -0.625       284.007       181.627       48956.1
       -0.615       283.308       183.705       48536.4
       -0.605        282.61       185.783       48119.7
       -0.595       281.912       187.862       47706.1
       -0.585       281.216        189.94       47295.7
       -0.575        280.52       192.017       46888.3
       -0.565       279.826       194.095         46484
       -0.555       279.131       196.172       46082.6
       -0.545       278.438        198.25       45684.3
       -0.535       277.747       200.326         45289
       -0.525       277.057       202.403       44896.7
       -0.515       276.366       204.479       44507.4
       -0.505       275.678       206.555         44121
       -0.495        274.99       208.631       43737.6
       -0.485       274.303       210.705       43357.2
       -0.475       273.616       212.781       42979.6
       -0.465       272.932       214.855       42604.9
       -0.455       272.248       216.928       42233.1
       -0.445       271.565       219.002       41864.2
       -0.435       270.883       221.073       41498.3
       -0.425       270.202       223.146         41135
       -0.415       269.523       225.216       40774.8
       -0.405       268.844       227.288       40417.3
       -0.395       268.167       229.357       40062.6
       -0.385        267.49       231.425       39710.9
       -0.375       266.815       233.493       39361.8
       -0.365       266.142       235.559       39015.7
       -0.355       265.469       237.624       38672.4
       -0.345       264.798       239.688       38331.8
       -0.335       264.129        241.75       37994.2
       -0.325       263.459        243.81       37659.4
       -0.315       262.793       245.868       37327.4
       -0.305       262.127       247.924       36998.3
       -0.295       261.464       249.978       36672.1
       -0.285       260.802       252.027       36348.9
       -0.275       260.142       254.075       36028.5
       -0.265       259.485       256.118       35711.4
       -0.255       258.829       258.156       35397.2
       -0.245       258.177        260.19       35086.2
       -0.235       257.527       262.216       34778.5
       -0.225       256.879       264.236       34474.3
       -0.215       256.236       266.246       34173.6
       -0.205       255.597       268.245       33876.8
       -0.195       254.963       270.233         33584
       -0.185       254.335       272.204       33295.8
       -0.175       253.714       274.156       33012.3
       -0.165       253.101       276.084       32734.5
       -0.155       252.498       277.982       32462.8
       -0.145       251.908       279.843       32198.4
       -0.135       251.334       281.655       31942.6
       -0.125       250.781       283.407         31697
       -0.115       250.252       285.081       31463.9
       -0.105       249.756       286.655       31245.8
       -0.095         249.3       288.105         31046
       -0.085       248.893         289.4       30868.3
       -0.075       248.544       290.514       30716.3
       -0.065       248.261        291.42       30592.9
       -0.055       248.047       292.108       30499.2
       -0.045       247.898       292.588       30434.1
       -0.035       247.804       292.889       30393.2
       -0.025       247.752       293.059       30370.2
       -0.015       247.727       293.142       30358.8
       -0.005       247.716       293.179       30353.8
        0.005       247.712       293.193       30351.8
        0.015       247.711       293.198       30351.1
        0.025       247.711         293.2       30350.8
        0.035       247.711       293.201       30350.8
        0.045       247.711       293.201       30350.8
        0.055       247.711       293.201       30350.7
        0.065       247.712       293.201       30350.7
        0.075       247.712       293.201       30350.7
        0.085       247.712       293.201       30350.7
        0.095       247.712       293.201       30350.7
        0.105       247.713       293.202       30350.6
        0.115       247.713       293.202       30350.6
        0.125       247.713       293.202       30350.6
        0.135       247.714       293.202       30350.6
        0.145       247.714       293.202       30350.5
        0.155       247.714       293.203       30350.5
        0.165       247.715       293.203       30350.5
        0.175       247.715       293.203       30350.5
        0.185       247.716       293.203       30350.5
        0.195       247.716       293.203       30350.5
        0.205       247.716       293.203       30350.5
        0.215       247.717       293.203       30350.4
        0.225       247.717       293.203       30350.4
        0.235       247.718       293.203       30350.4
        0.245       247.718       293.203       30350.4
        0.255       247.718       293.203       30350.4
        0.265       247.719       293.203       30350.4
        0.275       247.719       293.204       30350.4
        0.285        247.72       293.204       30350.4
        0.295        247.72       293.204       30350.4
        0.305       247.721       293.204       30350.4
        0.315       247.721       293.204       30350.4
        0.325       247.722       293.204       30350.4
        0.335       247.723       293.204       30350.4