/*--------------------------------*- C++ -*----------------------------------*\
| =========                 |                                                 |
| \\      /  F ield         | OpenFOAM: The Open Source CFD Toolbox           |
|  \\    /   O peration     | Version:  v2012                                 |
|   \\  /    A nd           | Website:  www.openfoam.com                      |
|    \\/     M anipulation  |                                                 |
\*---------------------------------------------------------------------------*/
FoamFile
{
    version     2.0;
    format      ascii;
    class       volScalarField;
    location    "29";
    object      p;
}
// * * * * * * * * * * * * * * * * * * * * * * * * * * * * * * * * * * * * * //

dimensions      [0 2 -2 0 0 0 0];


internalField   nonuniform List<scalar> 
2200
(
0.778301
0.7568
0.740892
0.72522
0.710606
0.698078
0.687711
0.679589
0.673845
0.670795
0.671153
0.674843
0.681056
0.689511
0.700111
0.712829
0.727561
0.743377
0.759367
0.780877
0.710734
0.707474
0.704548
0.700428
0.694964
0.688483
0.681852
0.675867
0.671324
0.668836
0.6692
0.672357
0.677403
0.683763
0.69066
0.697324
0.702935
0.707062
0.709966
0.713285
0.670854
0.671074
0.673134
0.674471
0.67485
0.67399
0.671978
0.669244
0.666623
0.665042
0.665458
0.667755
0.670921
0.674057
0.676338
0.677328
0.677051
0.675949
0.674148
0.673909
0.648397
0.649853
0.652439
0.654876
0.657313
0.659319
0.660452
0.660665
0.660217
0.659799
0.660266
0.661499
0.662559
0.662805
0.662035
0.660298
0.658064
0.655798
0.653216
0.651788
0.63404
0.636003
0.638832
0.64169
0.644556
0.647368
0.649818
0.651657
0.652842
0.653527
0.654077
0.654347
0.653901
0.652619
0.650609
0.648121
0.645467
0.642689
0.639892
0.637964
0.626869
0.628461
0.630669
0.6332
0.63585
0.638489
0.641019
0.643354
0.645271
0.646615
0.647261
0.647056
0.646033
0.644369
0.642318
0.64006
0.637663
0.635278
0.633153
0.631577
0.623633
0.624659
0.625929
0.627789
0.629916
0.632049
0.634153
0.636321
0.638385
0.640027
0.640807
0.640567
0.63957
0.638187
0.636658
0.634946
0.633133
0.631477
0.630315
0.629298
0.621017
0.621669
0.622328
0.623686
0.625357
0.627071
0.628798
0.63064
0.632545
0.634281
0.635232
0.635206
0.634603
0.633728
0.632712
0.631529
0.63027
0.62918
0.628645
0.627991
0.618077
0.618496
0.618939
0.620012
0.621352
0.62278
0.624271
0.625864
0.627547
0.629226
0.63038
0.630773
0.630677
0.630306
0.629706
0.628948
0.628081
0.627329
0.62703
0.626601
0.614571
0.614856
0.615264
0.616231
0.617448
0.618802
0.620253
0.621769
0.623339
0.624982
0.626418
0.627335
0.62771
0.627679
0.627323
0.626756
0.626111
0.625532
0.625289
0.624997
0.610304
0.610476
0.610881
0.611855
0.613137
0.61464
0.616324
0.618102
0.619918
0.621788
0.62359
0.624886
0.625522
0.625552
0.625209
0.624681
0.624112
0.623591
0.623359
0.623168
0.605598
0.605683
0.606081
0.607053
0.608394
0.610034
0.611969
0.614146
0.616506
0.618947
0.621151
0.62258
0.62321
0.623257
0.622996
0.62259
0.6221
0.621669
0.62148
0.621382
0.60085
0.600871
0.601264
0.602187
0.60349
0.60512
0.607064
0.609364
0.612104
0.615106
0.617809
0.619622
0.620582
0.62107
0.621179
0.621006
0.620714
0.620435
0.620308
0.620264
0.596193
0.596116
0.59652
0.597327
0.598634
0.600235
0.602131
0.604434
0.607295
0.610703
0.614091
0.616746
0.618547
0.619675
0.620232
0.620401
0.620383
0.620308
0.620242
0.620221
0.59146
0.591362
0.59172
0.592539
0.593873
0.595622
0.59773
0.600319
0.603518
0.607438
0.611609
0.615092
0.61758
0.619205
0.620204
0.620773
0.621037
0.621127
0.621125
0.621105
0.586316
0.586323
0.586597
0.587406
0.588933
0.590877
0.59338
0.596564
0.600515
0.605333
0.610459
0.614684
0.617669
0.619711
0.621121
0.621987
0.622468
0.622712
0.622791
0.622773
0.58035
0.580313
0.580693
0.581605
0.583139
0.58526
0.588133
0.591931
0.596789
0.602815
0.609214
0.614485
0.618248
0.620925
0.622829
0.624063
0.624822
0.625251
0.6254
0.625369
0.573066
0.572995
0.573408
0.574441
0.576121
0.578481
0.581736
0.586135
0.591945
0.599335
0.607338
0.614062
0.619004
0.622605
0.625163
0.626918
0.628063
0.628712
0.62894
0.628887
0.564242
0.564166
0.5646
0.565747
0.56773
0.570574
0.574514
0.579863
0.586927
0.59595
0.605834
0.614192
0.620442
0.625018
0.628334
0.630678
0.632253
0.633119
0.633409
0.633327
0.553456
0.553394
0.553961
0.555399
0.557865
0.561456
0.566464
0.573212
0.582076
0.59324
0.605297
0.615434
0.62302
0.628593
0.632658
0.635518
0.637435
0.638472
0.638831
0.638732
0.540293
0.5402
0.540927
0.542764
0.545935
0.550556
0.55694
0.565557
0.576767
0.590632
0.605305
0.617578
0.626679
0.633402
0.638228
0.641647
0.643963
0.64519
0.64561
0.645484
0.5236
0.52354
0.52456
0.526996
0.531142
0.537155
0.545461
0.556512
0.570623
0.587759
0.605572
0.620354
0.631256
0.639327
0.645158
0.6493
0.652029
0.65346
0.653953
0.653797
0.50263
0.502502
0.503886
0.507193
0.512784
0.520902
0.53189
0.546147
0.563899
0.584925
0.606367
0.624012
0.637026
0.646616
0.653587
0.658564
0.661845
0.663559
0.664124
0.663909
0.475074
0.475189
0.477462
0.482259
0.49018
0.501416
0.51614
0.534675
0.556909
0.582502
0.60808
0.628863
0.644152
0.655431
0.663691
0.66959
0.673456
0.675443
0.676075
0.675819
0.43843
0.438799
0.442592
0.450381
0.462231
0.478276
0.498314
0.522252
0.549911
0.58082
0.610955
0.635105
0.652804
0.665889
0.675528
0.682478
0.687054
0.689407
0.690113
0.689743
0.389602
0.39013
0.397427
0.410295
0.428521
0.451669
0.478532
0.509102
0.543097
0.579884
0.614872
0.642567
0.662844
0.677862
0.689036
0.697169
0.702544
0.705157
0.705809
0.705364
0.324117
0.327124
0.342839
0.364564
0.391545
0.422839
0.457575
0.495666
0.536765
0.580174
0.62078
0.652781
0.676351
0.694034
0.707339
0.717299
0.724113
0.727212
0.727765
0.727501
0.248715
0.258932
0.285424
0.317013
0.353761
0.39395
0.436727
0.482627
0.531132
0.581612
0.628456
0.665466
0.693096
0.71416
0.730357
0.742591
0.751542
0.755639
0.756565
0.756842
0.182344
0.19812
0.231253
0.271082
0.316956
0.365755
0.416651
0.470322
0.526069
0.583401
0.636263
0.677958
0.709083
0.732862
0.751212
0.765304
0.775213
0.780673
0.782345
0.782332
0.132624
0.146593
0.184946
0.230554
0.283449
0.339363
0.397593
0.458473
0.521128
0.585128
0.643652
0.689518
0.72342
0.749318
0.769485
0.785003
0.795536
0.801124
0.802742
0.802859
0.0916856
0.104697
0.146361
0.195791
0.253939
0.31549
0.379968
0.447247
0.516253
0.586385
0.649923
0.699238
0.735524
0.762978
0.783802
0.799657
0.810768
0.816566
0.818459
0.818611
0.0562875
0.0695623
0.113581
0.165848
0.22803
0.29412
0.363824
0.436593
0.511148
0.586653
0.654824
0.707324
0.745471
0.773625
0.795049
0.81128
0.822631
0.828799
0.830876
0.83104
0.0253904
0.0387977
0.0847516
0.139387
0.204892
0.274776
0.348853
0.426258
0.505672
0.586089
0.658439
0.713561
0.753013
0.782228
0.804136
0.82053
0.832277
0.83868
0.840995
0.841119
-0.00249643
0.0109736
0.0585728
0.115404
0.183834
0.256909
0.334664
0.416078
0.499878
0.584905
0.661134
0.718681
0.759568
0.789484
0.811849
0.828515
0.840225
0.846984
0.849081
0.848942
-0.0279962
-0.0145625
0.034265
0.0931965
0.164238
0.240034
0.320969
0.405959
0.493733
0.5829
0.662673
0.722725
0.765321
0.796123
0.818858
0.835732
0.847346
0.85383
0.856064
0.855936
-0.052109
-0.0383798
0.0114102
0.0723494
0.145725
0.22389
0.307581
0.395707
0.486951
0.579753
0.663337
0.726496
0.770698
0.802403
0.825602
0.84247
0.854058
0.860471
0.862676
0.862661
-0.0747853
-0.0609167
-0.0103254
0.052455
0.127885
0.2082
0.29433
0.385189
0.479606
0.576251
0.664016
0.730129
0.776094
0.808886
0.83231
0.849216
0.860828
0.867031
0.869329
0.869302
-0.0961976
-0.0823556
-0.0310965
0.0332357
0.11041
0.192717
0.281079
0.374429
0.471846
0.57211
0.663401
0.732729
0.78129
0.815159
0.839156
0.856193
0.867786
0.873912
0.876019
0.876009
-0.11685
-0.102819
-0.0511186
0.0144915
0.0931362
0.177276
0.267731
0.363403
0.463474
0.566915
0.66233
0.735389
0.786216
0.821565
0.846336
0.863501
0.874987
0.880819
0.882902
0.882814
-0.137203
-0.122537
-0.0705214
-0.00385378
0.076006
0.1618
0.254195
0.351981
0.454606
0.561383
0.660774
0.737089
0.790872
0.82842
0.854051
0.871301
0.882373
0.888018
0.889742
0.889577
-0.157244
-0.141778
-0.0894301
-0.0218005
0.0590835
0.14631
0.240434
0.340233
0.445251
0.554783
0.657138
0.737558
0.795174
0.8354
0.862483
0.879861
0.890212
0.895007
0.896416
0.896166
-0.176838
-0.160626
-0.107864
-0.0393128
0.0424442
0.13088
0.226514
0.328091
0.435038
0.546921
0.652918
0.737716
0.79906
0.842542
0.871836
0.889607
0.898736
0.902206
0.90273
0.902492
-0.195816
-0.179063
-0.125812
-0.0563617
0.0261757
0.115615
0.212463
0.315466
0.4242
0.538425
0.647497
0.735775
0.801848
0.849783
0.882206
0.901348
0.909258
0.908824
0.908058
0.908595
-0.214155
-0.197001
-0.143219
-0.0729075
0.0103337
0.100571
0.198374
0.302579
0.412898
0.529043
0.640527
0.733028
0.803776
0.856433
0.893466
0.915453
0.923289
0.918648
0.913255
0.911031
-0.231819
-0.21434
-0.160037
-0.0889365
-0.00505196
0.0858504
0.184425
0.289605
0.401135
0.518906
0.632654
0.728556
0.803628
0.86226
0.905331
0.932532
0.944624
0.934172
0.929783
0.934456
-0.24882
-0.231021
-0.176214
-0.104411
-0.0199398
0.0715289
0.170706
0.276607
0.389105
0.508196
0.623865
0.722109
0.801488
0.86591
0.916276
0.951501
0.972256
0.95105
0.906713
0.863941
-0.265089
-0.247045
-0.191789
-0.119416
-0.0344641
0.0574509
0.157061
0.263454
0.376684
0.49688
0.613871
0.713627
0.796205
0.866285
0.924838
0.971284
1.0074
1.01128
1.02969
1.08123
-0.280591
-0.262471
-0.206851
-0.134085
-0.0488152
0.0433716
0.143221
0.249869
0.363444
0.484193
0.601596
0.7024
0.786994
0.860818
0.923245
0.972146
1.00119
0.999112
0.968199
0.977385
-0.29529
-0.277261
-0.221355
-0.148364
-0.0629205
0.0293766
0.129291
0.235949
0.349464
0.470049
0.587597
0.68847
0.772132
0.845423
0.906594
0.951506
0.953615
0.911384
0.853608
0.84378
-0.309209
-0.291421
-0.235299
-0.162241
-0.0767642
0.0154705
0.115264
0.221675
0.334732
0.454692
0.571654
0.67099
0.751864
0.818996
0.872999
0.891027
0.861946
0.792129
0.720972
0.706578
-0.32238
-0.304937
-0.248696
-0.175733
-0.0903585
0.00163865
0.101114
0.207011
0.319267
0.438125
0.553563
0.650371
0.724996
0.779585
0.809177
0.801253
0.752757
0.65376
0.567906
0.549995
-0.335263
-0.318233
-0.261941
-0.189201
-0.104049
-0.0124263
0.0865683
0.191742
0.302916
0.420118
0.533204
0.626095
0.693452
0.732001
0.727603
0.694677
0.590535
0.469891
0.363581
0.339867
-0.348751
-0.332082
-0.275735
-0.203275
-0.11841
-0.027202
0.0712241
0.175538
0.28539
0.400497
0.510426
0.598666
0.658731
0.674034
0.638006
0.553049
0.397203
0.245156
0.11762
0.0924189
-0.363356
-0.346924
-0.290397
-0.218189
-0.133621
-0.0428082
0.0550096
0.158365
0.266734
0.379367
0.485217
0.567815
0.615961
0.604484
0.546814
0.397739
0.194179
-0.0214685
-0.203044
-0.249253
-0.379157
-0.362806
-0.305982
-0.233965
-0.149656
-0.0592045
0.0379811
0.140307
0.247016
0.356716
0.457641
0.534481
0.568323
0.524921
0.433001
0.238996
-0.00105737
-0.298477
-0.627545
-0.770939
-0.396218
-0.37986
-0.322586
-0.250675
-0.166558
-0.0764418
0.020095
0.121301
0.226214
0.332822
0.428083
0.498578
0.515191
0.439776
0.297093
0.0800579
-0.16724
-0.525939
-1.13039
-1.71157
-0.414565
-0.398104
-0.340272
-0.268372
-0.184333
-0.0944973
0.00140433
0.101477
0.204547
0.307835
0.397106
0.459846
0.459391
0.363144
0.164824
-0.0858555
-0.304885
-0.559627
-1.14816
-2.73041
-0.434215
-0.417658
-0.359104
-0.287164
-0.203135
-0.113565
-0.0183167
0.0805281
0.181583
0.281526
0.365117
0.418856
0.400288
0.301993
0.0644635
-0.197535
-0.359234
-0.412464
-0.425738
-0.828128
-0.455081
-0.438541
-0.379258
-0.307341
-0.223324
-0.134094
-0.0396523
0.057759
0.156519
0.252605
0.330615
0.374093
0.33748
0.254007
0.015152
-0.215578
-0.34423
-0.360321
-0.31413
-0.358233
-0.47714
-0.460612
-0.400692
-0.328941
-0.244966
-0.156206
-0.0627308
0.0330355
0.129124
0.220757
0.294049
0.32789
0.281663
0.200225
-0.0232858
-0.207108
-0.303078
-0.313114
-0.359266
-0.369479
-0.500292
-0.483629
-0.423392
-0.351971
-0.267995
-0.179852
-0.0875194
0.00638052
0.0994773
0.186653
0.255377
0.280318
0.231735
0.137505
-0.0551953
-0.199339
-0.285395
-0.25154
-0.275966
-0.278156
-0.52431
-0.507235
-0.447242
-0.376287
-0.292254
-0.204949
-0.113919
-0.0219943
0.0678988
0.15036
0.214173
0.229678
0.187776
0.0692758
-0.0930347
-0.200161
-0.25877
-0.292689
-0.272211
-0.278831
-0.548651
-0.531257
-0.472212
-0.401697
-0.317469
-0.231221
-0.141594
-0.0518088
0.0345663
0.112468
0.171799
0.176088
0.144613
0.0039436
-0.134197
-0.209466
-0.206838
-0.269517
-0.243334
-0.251441
-0.572809
-0.555358
-0.49781
-0.427599
-0.343314
-0.258392
-0.17026
-0.082625
-0.000178692
0.0733474
0.129759
0.123637
0.0957295
-0.0484891
-0.169204
-0.238707
-0.205382
-0.242667
-0.240588
-0.242502
-0.596288
-0.579232
-0.523239
-0.453366
-0.369445
-0.285978
-0.199316
-0.113925
-0.0354959
0.0336047
0.0889115
0.0735579
0.0357718
-0.0942502
-0.182746
-0.24031
-0.257781
-0.242827
-0.247574
-0.243452
-0.618406
-0.602079
-0.547414
-0.478098
-0.395456
-0.313361
-0.228162
-0.144926
-0.0704976
-0.00642695
0.0497357
0.024159
-0.0290877
-0.136145
-0.187218
-0.216332
-0.280296
-0.238425
-0.249135
-0.240746
-0.638213
-0.622966
-0.569764
-0.501234
-0.420754
-0.339737
-0.255991
-0.17486
-0.103578
-0.0458041
0.0121984
-0.0213847
-0.102068
-0.191232
-0.199791
-0.153376
-0.23577
-0.21307
-0.243251
-0.238567
-0.654591
-0.640758
-0.589438
-0.522137
-0.444093
-0.363955
-0.281753
-0.202735
-0.133786
-0.082968
-0.0241805
-0.0627929
-0.176946
-0.255255
-0.218597
-0.102238
-0.153184
-0.191982
-0.218818
-0.235863
-0.666455
-0.65444
-0.605761
-0.540013
-0.46399
-0.385074
-0.304531
-0.227106
-0.159707
-0.115385
-0.0598209
-0.0908278
-0.25624
-0.392772
-0.406696
-0.401328
-0.406002
-0.400665
-0.400419
-0.393682
-0.672793
-0.662794
-0.617315
-0.553493
-0.479248
-0.401733
-0.322829
-0.246949
-0.179852
-0.139079
-0.0932251
-0.111319
-0.328209
-0.630025
-0.940008
-1.10139
-1.12416
-1.07599
-1.00857
-0.940307
-0.672769
-0.664684
-0.623006
-0.561193
-0.488646
-0.412814
-0.335352
-0.26039
-0.193171
-0.149998
-0.116406
-0.121626
-0.351989
-0.744365
-1.28996
-1.60088
-1.63595
-1.55316
-1.44431
-1.36254
-0.665408
-0.658287
-0.621017
-0.562019
-0.491537
-0.417276
-0.340811
-0.265495
-0.195421
-0.145398
-0.113003
-0.102724
-0.268131
-0.516499
-0.840413
-0.988972
-0.934972
-0.838731
-0.6951
-0.62132
-0.647791
-0.640551
-0.609499
-0.554815
-0.486928
-0.41406
-0.338
-0.261388
-0.185218
-0.121467
-0.0746265
-0.00809183
0.0176563
0.148404
0.275198
0.410776
0.556426
0.659205
0.722973
0.779537
-0.61544
-0.608793
-0.587178
-0.539468
-0.475011
-0.403505
-0.32718
-0.247832
-0.162986
-0.0779082
-0.00324512
0.142041
0.347534
0.712255
1.08754
1.39745
1.61924
1.75912
1.83154
1.85715
-0.568751
-0.564179
-0.555977
-0.517008
-0.456652
-0.385875
-0.309296
-0.226649
-0.134886
-0.0292688
0.0762595
0.23111
0.537584
0.957449
1.37601
1.72931
1.98824
2.14224
2.20943
2.22535
-0.529587
-0.528597
-0.524683
-0.491989
-0.435636
-0.365656
-0.28771
-0.203421
-0.110401
0.00329461
0.122954
0.234618
0.514515
0.862436
1.21462
1.51803
1.74913
1.88981
1.95491
1.97418
-0.499811
-0.501674
-0.495424
-0.468207
-0.413137
-0.344539
-0.267117
-0.18436
-0.0959628
0.00754073
0.118243
0.194831
0.393519
0.663567
0.934061
1.15947
1.33584
1.45055
1.50569
1.52359
-0.461071
-0.462779
-0.460741
-0.439409
-0.386407
-0.321265
-0.247706
-0.169558
-0.089486
-0.00398016
0.0951388
0.15525
0.281605
0.491802
0.709243
0.878022
1.00929
1.10232
1.14493
1.15625
-0.407894
-0.408889
-0.411222
-0.394457
-0.349218
-0.292029
-0.227216
-0.157427
-0.0876764
-0.0183796
0.0684292
0.121211
0.191276
0.347202
0.5176
0.642642
0.736572
0.805316
0.835402
0.841527
-0.33502
-0.336764
-0.338026
-0.326917
-0.294102
-0.251413
-0.200422
-0.143129
-0.0837645
-0.0267337
0.0462165
0.0932918
0.132286
0.243842
0.370167
0.459401
0.525589
0.573394
0.596525
0.603903
-0.24915
-0.250843
-0.25144
-0.244641
-0.225447
-0.19847
-0.163103
-0.12144
-0.0723033
-0.0275333
0.0299332
0.0704954
0.0943792
0.176869
0.266904
0.32585
0.374682
0.413494
0.429465
0.434246
-0.165846
-0.167102
-0.167868
-0.16484
-0.155682
-0.141151
-0.120121
-0.0938798
-0.0560907
-0.0241896
0.0170622
0.0536434
0.066547
0.131946
0.198116
0.237028
0.273603
0.300109
0.313808
0.318937
-0.0986851
-0.099572
-0.100516
-0.099999
-0.0971625
-0.091481
-0.0809702
-0.0666455
-0.040467
-0.0192559
0.00872915
0.0392278
0.0480084
0.0997002
0.145809
0.17794
0.202665
0.21905
0.227283
0.229094
-0.0527206
-0.0532731
-0.0543508
-0.0562951
-0.0578021
-0.0568285
-0.0522405
-0.0447709
-0.0290213
-0.0131639
0.00648897
0.0249325
0.0379668
0.0738659
0.104631
0.128574
0.144885
0.152365
0.154592
0.153882
-0.0261792
-0.0266407
-0.0278696
-0.0304543
-0.0337049
-0.0353003
-0.0339746
-0.0301747
-0.020255
-0.00727605
0.00751316
0.016861
0.0269185
0.0524138
0.0731502
0.0879875
0.0964742
0.0971638
0.0954944
0.094511
-0.0130455
-0.0133649
-0.0144345
-0.016694
-0.0201284
-0.0225417
-0.0226234
-0.0205634
-0.0126247
-0.00186255
0.0103975
0.015713
0.0200336
0.0384385
0.054198
0.0621921
0.0653859
0.0668607
0.0652573
0.0628146
-0.00899196
-0.00911358
-0.00976783
-0.011459
-0.0141363
-0.0162873
-0.0165119
-0.0148677
-0.00672026
0.00321401
0.0172431
0.0218708
0.0249367
0.0372118
0.048765
0.0539247
0.0560184
0.0569905
0.0556857
0.0526923
-0.0123425
-0.0122538
-0.0124112
-0.0132731
-0.0147325
-0.0158082
-0.0148274
-0.011815
-0.00400074
0.00789573
0.0285654
0.0358484
0.0400229
0.0455989
0.0530939
0.0556041
0.0530424
0.046373
0.0438632
0.0429888
-0.0228977
-0.0225515
-0.022189
-0.0220576
-0.0222868
-0.0217233
-0.0198178
-0.0136791
-0.00386035
0.01105
0.0343139
0.0514084
0.0568671
0.059738
0.061138
0.0588454
0.0576014
0.0532816
0.0507981
0.051352
-0.0423024
-0.0413837
-0.0410501
-0.039323
-0.0384454
-0.036415
-0.0333123
-0.0257323
-0.0146805
0.00432408
0.0355557
0.0582153
0.070057
0.0689333
0.0745288
0.0787066
0.0939874
0.107851
0.109455
0.107368
-0.069087
-0.0683133
-0.0675111
-0.0661543
-0.0645752
-0.0613783
-0.0574363
-0.0492312
-0.0385866
-0.0179664
0.0161551
0.0463911
0.069228
0.063539
0.0893501
0.108001
0.132723
0.157411
0.168615
0.157405
-0.105338
-0.104479
-0.103759
-0.102395
-0.100653
-0.0979679
-0.095065
-0.0897968
-0.0832142
-0.0653497
-0.030121
0.00497661
0.0165611
0.0186433
0.0574469
0.0911731
0.11049
0.123411
0.13585
0.128424
-0.151094
-0.150271
-0.149518
-0.148767
-0.148121
-0.14783
-0.1489
-0.151643
-0.154382
-0.145259
-0.105221
-0.0520725
-0.0500645
-0.0395161
-0.00440722
0.0261923
0.0468351
0.0464222
0.0543094
0.055145
-0.205129
-0.204702
-0.204551
-0.204727
-0.2061
-0.210254
-0.219582
-0.236149
-0.255446
-0.261978
-0.213559
-0.127336
-0.106081
-0.0834653
-0.0477803
-0.0180767
0.0198932
0.0282456
0.0173644
0.0222561
-0.259807
-0.259906
-0.260831
-0.263029
-0.268376
-0.279924
-0.302112
-0.338532
-0.384819
-0.42077
-0.367518
-0.232261
-0.19107
-0.137003
-0.0787249
-0.0437525
-0.00935057
0.0148518
-0.00287778
-0.00205024
-0.307173
-0.308066
-0.310466
-0.315188
-0.325343
-0.346223
-0.385044
-0.447886
-0.539742
-0.609683
-0.548608
-0.377247
-0.309092
-0.224659
-0.147888
-0.0915132
-0.0857899
-0.0684992
-0.0676854
-0.0688141
-0.331189
-0.332847
-0.337161
-0.345324
-0.360719
-0.39105
-0.44719
-0.540447
-0.677882
-0.775203
-0.711915
-0.53375
-0.420427
-0.294827
-0.213051
-0.147334
-0.122376
-0.143198
-0.130321
-0.132001
-0.325901
-0.327889
-0.331287
-0.340281
-0.359739
-0.39515
-0.455849
-0.562164
-0.723509
-0.862316
-0.818542
-0.606911
-0.463753
-0.326991
-0.235387
-0.202941
-0.16152
-0.169431
-0.166943
-0.16704
-0.280663
-0.282982
-0.286254
-0.293063
-0.309346
-0.344118
-0.407201
-0.513801
-0.67121
-0.809821
-0.776961
-0.569195
-0.398077
-0.306609
-0.237847
-0.193392
-0.204351
-0.190592
-0.188322
-0.186971
-0.21028
-0.21196
-0.214971
-0.220657
-0.232965
-0.259202
-0.308914
-0.391862
-0.513167
-0.625442
-0.599707
-0.423562
-0.281299
-0.231412
-0.224717
-0.181492
-0.188079
-0.182589
-0.180395
-0.178913
-0.122303
-0.123451
-0.125063
-0.1278
-0.134418
-0.150049
-0.181556
-0.237899
-0.316574
-0.38433
-0.36285
-0.250547
-0.195776
-0.169429
-0.146749
-0.162708
-0.148073
-0.144469
-0.138304
-0.135916
-0.0292474
-0.0291715
-0.0279925
-0.0266281
-0.0270445
-0.0318844
-0.043084
-0.0663812
-0.0992124
-0.124691
-0.122634
-0.108792
-0.126196
-0.135723
-0.0869146
-0.0765994
-0.0582994
-0.05297
-0.0502534
-0.049044
-1.12581
-0.255573
0.0167967
0.302133
0.493622
0.659197
0.797408
0.937689
1.08794
1.16516
-0.119368
0.302131
0.326745
0.520986
0.653985
0.772886
0.876099
0.967046
0.997013
0.953164
0.278438
0.500564
0.541985
0.681746
0.773833
0.85861
0.928547
0.980667
0.984414
0.99702
0.518237
0.66935
0.705573
0.81315
0.871617
0.933137
0.980039
1.01342
1.02322
1.04638
0.706702
0.810062
0.840413
0.913091
0.957568
1.00125
1.03456
1.05942
1.06975
1.10087
0.851939
0.924067
0.954558
1.00012
1.03704
1.06837
1.09348
1.11447
1.12908
1.15704
0.973948
1.02621
1.05236
1.08161
1.11027
1.13471
1.15519
1.17467
1.18983
1.21613
1.07932
1.11767
1.13913
1.16041
1.18195
1.20184
1.21952
1.23782
1.25278
1.27639
1.17475
1.2038
1.22107
1.23681
1.25341
1.26979
1.28551
1.30257
1.31618
1.33848
1.26376
1.28465
1.29984
1.31328
1.32711
1.34106
1.35462
1.36925
1.38078
1.40044
1.35011
1.366
1.37998
1.39197
1.40402
1.4157
1.42684
1.43853
1.44619
1.463
1.43567
1.44861
1.46242
1.4741
1.48467
1.49442
1.50318
1.51142
1.51499
1.52628
1.52502
1.53602
1.54949
1.5587
1.56613
1.57332
1.58051
1.58707
1.58807
1.59551
1.62346
1.62819
1.63623
1.64073
1.644
1.64847
1.65447
1.66223
1.66606
1.67595
1.73677
1.72307
1.71562
1.71
1.70734
1.70874
1.71524
1.72764
1.7424
1.77205
1.85768
1.80196
1.7711
1.75403
1.74588
1.74587
1.75456
1.77408
1.80609
1.87527
)
;

boundaryField
{
    wall-4
    {
        type            zeroGradient;
    }
    pressure-outlet-7
    {
        type            fixedValue;
        value           uniform 0;
    }
    velocity-inlet-6
    {
        type            zeroGradient;
    }
    velocity-inlet-5
    {
        type            zeroGradient;
    }
    frontAndBackPlanes
    {
        type            empty;
    }
}


// ************************************************************************* //
