/*--------------------------------*- C++ -*----------------------------------*\
| =========                 |                                                 |
| \\      /  F ield         | OpenFOAM: The Open Source CFD Toolbox           |
|  \\    /   O peration     | Version:  v2012                                 |
|   \\  /    A nd           | Website:  www.openfoam.com                      |
|    \\/     M anipulation  |                                                 |
\*---------------------------------------------------------------------------*/
FoamFile
{
    version     2.0;
    format      ascii;
    class       surfaceScalarField;
    location    "29";
    object      phi;
}
// * * * * * * * * * * * * * * * * * * * * * * * * * * * * * * * * * * * * * //

dimensions      [0 3 -1 0 0 0 0];
oriented        oriented;


internalField   nonuniform List<scalar> 
4262
(
0.107148
0.470841
0.0955908
0.705143
0.0694396
0.858454
0.0474696
1.02073
0.0311203
1.21487
0.0199567
1.44938
0.0125786
1.73324
0.00731145
2.0763
0.00329374
2.48926
-0.000237286
2.98582
-0.00378316
2.98584
-0.00778374
2.48924
-0.0130013
2.07625
-0.0202821
1.73314
-0.0313071
1.44924
-0.0475081
1.21472
-0.0693218
1.02058
-0.0954578
0.858439
-0.107154
0.705282
0.470834
0.112885
0.357956
0.135318
0.68271
0.120423
0.873349
0.0979242
1.04323
0.0748002
1.23799
0.0530467
1.47114
0.0345208
1.75177
0.0203529
2.09047
0.00919638
2.50042
-0.000987502
2.99601
-0.0110935
2.99594
-0.022042
2.50019
-0.0359975
2.09021
-0.0544585
1.75161
-0.0761674
1.47095
-0.0994281
1.23798
-0.122201
1.04335
-0.136385
0.872623
-0.11334
0.682237
0.357494
0.0920332
0.265923
0.124948
0.649795
0.121036
0.87726
0.104594
1.05967
0.0858203
1.25676
0.0667634
1.49019
0.0480188
1.77051
0.0302504
2.10824
0.0140131
2.51666
-0.00152863
3.01155
-0.0170717
3.01149
-0.0331767
2.5163
-0.0506994
2.10773
-0.0688618
1.76977
-0.0873132
1.4894
-0.105286
1.25595
-0.12059
1.05865
-0.125252
0.877286
-0.0922366
0.649221
0.265258
0.0639986
0.201924
0.104898
0.608896
0.106763
0.875396
0.0953739
1.07106
0.0811888
1.27095
0.0664891
1.50489
0.0507032
1.7863
0.0338466
2.1251
0.0163076
2.53419
-0.00243282
3.03029
-0.0209265
3.02998
-0.0378618
2.53323
-0.0539503
2.12382
-0.0692759
1.78509
-0.0836398
1.50377
-0.0976283
1.26994
-0.109044
1.07007
-0.106296
0.874538
-0.0645664
0.607492
0.200691
0.0374747
0.164449
0.0807015
0.565669
0.0911003
0.864997
0.0842066
1.07796
0.0718929
1.28326
0.0598691
1.51692
0.0467998
1.79937
0.0320646
2.13983
0.0156759
2.55058
-0.00306179
3.04903
-0.0214631
3.04838
-0.0372761
2.54905
-0.0515476
2.13809
-0.064102
1.79765
-0.0755472
1.51521
-0.0873267
1.28172
-0.0936145
1.07636
-0.0823019
0.863225
-0.0380706
0.563261
0.16262
0.0193329
0.145116
0.0568262
0.528175
0.0720353
0.849788
0.0701458
1.07985
0.0618913
1.29152
0.0515431
1.52727
0.0403666
1.81054
0.0278125
2.15239
0.0129426
2.56545
-0.00427248
3.06624
-0.0212436
3.06535
-0.035483
2.56329
-0.0471594
2.14977
-0.0572186
1.80771
-0.0667189
1.52471
-0.0741725
1.28917
-0.0751851
1.07737
-0.0587636
0.846804
-0.0199564
0.524453
0.142664
0.0105641
0.134552
0.042294
0.496445
0.0584887
0.833594
0.0587943
1.07954
0.05284
1.29747
0.0439301
1.53618
0.0340209
1.82045
0.0228232
2.16358
0.0100024
2.57827
-0.00511688
3.08136
-0.0199255
3.08016
-0.0319838
2.57534
-0.0420442
2.15983
-0.051102
1.81676
-0.0591317
1.53274
-0.0639113
1.29395
-0.0624097
1.07587
-0.0447029
0.829097
-0.0113349
0.491085
0.131329
0.0065754
0.127977
0.032701
0.47032
0.0489085
0.817386
0.0503816
1.07807
0.0453891
1.30246
0.0373452
1.54422
0.0281344
1.82966
0.0177643
2.17395
0.00628335
2.58975
-0.00665139
3.0943
-0.019009
3.09252
-0.0293562
2.58569
-0.0384105
2.16888
-0.0459756
1.82433
-0.0524846
1.53925
-0.056244
1.29771
-0.0534723
1.0731
-0.0354018
0.811026
-0.0073978
0.463081
0.123931
0.00436722
0.12361
0.0253532
0.449334
0.0407973
0.801942
0.0429793
1.07589
0.0385857
1.30686
0.0315237
1.55128
0.0232984
1.83789
0.0140358
2.18322
0.0035474
2.60024
-0.00824353
3.10609
-0.0194742
3.10375
-0.0286439
2.59486
-0.0364028
2.17664
-0.0429158
1.83084
-0.0485568
1.54489
-0.0513037
1.30046
-0.0470196
1.06881
-0.0289587
0.792965
-0.00550765
0.43963
0.118424
0.00320447
0.120405
0.0200897
0.432449
0.034637
0.787395
0.0376389
1.07288
0.0338259
1.31067
0.0270341
1.55807
0.0192492
1.84567
0.0104082
2.19206
0.000545299
2.61011
-0.0104782
3.11711
-0.0207106
3.11398
-0.0287056
2.60286
-0.0352345
2.18317
-0.0410673
1.83668
-0.0457082
1.54954
-0.0472445
1.30199
-0.0417519
1.06332
-0.0242428
0.775456
-0.00454414
0.419932
0.11388
0.00247705
0.117928
0.0153682
0.419557
0.0282283
0.774535
0.0314909
1.06962
0.0284515
1.31371
0.0226774
1.56385
0.0158427
1.85251
0.00770149
2.2002
-0.00190808
2.61972
-0.012771
3.12797
-0.022685
3.1239
-0.0302109
2.61038
-0.0358373
2.1888
-0.0400767
1.84091
-0.0432822
1.55274
-0.0437708
1.30248
-0.0373553
1.0569
-0.020547
0.758648
-0.00409163
0.403476
0.109788
0.00161578
0.116312
0.010643
0.41053
0.0215571
0.76362
0.0245649
1.06661
0.0218094
1.31646
0.0166238
1.56903
0.0101724
1.85896
0.00260898
2.20776
-0.00626492
2.62859
-0.0162498
3.13796
-0.025056
3.1327
-0.0311283
2.61645
-0.0352124
2.19288
-0.0381676
1.84387
-0.0399993
1.55457
-0.0392757
1.30176
-0.0323403
1.04997
-0.0168685
0.743176
-0.00372619
0.390334
0.106062
0.000639489
0.115673
0.00580326
0.405366
0.0138492
0.755575
0.0161055
1.06436
0.0135486
1.31902
0.0090251
1.57356
0.00315575
1.86483
-0.00373335
2.21465
-0.0113844
2.63624
-0.019358
3.14593
-0.0259028
3.13925
-0.0303018
2.62085
-0.0332523
2.19583
-0.0353806
1.846
-0.0363318
1.55552
-0.034894
1.30032
-0.0274716
1.04255
-0.0133715
0.729076
-0.0031629
0.380125
0.102899
-0.000319558
0.115993
0.00134325
0.403704
0.00715712
0.749761
0.00894159
1.06257
0.00630796
1.32166
0.00166838
1.5782
-0.00424067
1.87074
-0.0109515
2.22136
-0.0179625
2.64325
-0.0246587
3.15263
-0.0296536
3.14424
-0.0325593
2.62376
-0.0341352
2.19741
-0.0343578
1.84622
-0.0335137
1.55468
-0.0307852
1.29759
-0.0229555
1.03472
-0.0105784
0.716699
-0.00262575
0.372173
0.100273
-0.00117823
0.117171
-0.00180845
0.404334
0.000889494
0.747063
0.0014829
1.06198
-0.00126197
1.3244
-0.00568723
1.58262
-0.0112784
1.87633
-0.0176105
2.22769
-0.0242825
2.64992
-0.0304987
3.15884
-0.0345221
3.14827
-0.0360135
2.62525
-0.0358088
2.1972
-0.0346435
1.84506
-0.0327508
1.55279
-0.0291695
1.29401
-0.0209222
1.02647
-0.00949449
0.705271
-0.00250443
0.365183
0.0977687
-0.00235969
0.11953
-0.00519838
0.407173
-0.00570429
0.747569
-0.00603253
1.06231
-0.00925178
1.32762
-0.0141719
1.58754
-0.0198426
1.882
-0.0259924
2.23384
-0.0323545
2.65629
-0.0379465
3.16444
-0.0406981
3.15102
-0.0405044
2.62506
-0.0388716
2.19557
-0.0366992
1.84288
-0.0332847
1.54937
-0.028083
1.28881
-0.0193021
1.01769
-0.00895033
0.694919
-0.00254552
0.358778
0.0952232
-0.00336758
0.122898
-0.00855013
0.412355
-0.0118262
0.750845
-0.0146848
1.06517
-0.0185558
1.33149
-0.0236191
1.5926
-0.0295123
1.88789
-0.0357851
2.24012
-0.0418324
2.66233
-0.0465645
3.16917
-0.0479052
3.15236
-0.045986
2.62314
-0.0426191
2.1922
-0.0388176
1.83908
-0.03438
1.54493
-0.0285772
1.28301
-0.0195331
1.00864
-0.00936679
0.684753
-0.00274013
0.352151
0.0924831
-0.00394273
0.126841
-0.0111464
0.419559
-0.0167505
0.756449
-0.0209565
1.06937
-0.0262421
1.33678
-0.032755
1.59912
-0.0398257
1.89496
-0.0471191
2.24741
-0.0538251
2.66904
-0.0583451
3.17369
-0.0582773
3.15229
-0.0549345
2.61979
-0.0501522
2.18742
-0.0447751
1.83371
-0.0385971
1.53876
-0.0309753
1.27539
-0.0208447
0.998514
-0.0104701
0.674378
-0.00317789
0.344859
0.0893052
-0.00504371
0.131884
-0.0145315
0.429046
-0.0229139
0.764831
-0.0287678
1.07523
-0.0346515
1.34266
-0.0418176
1.60628
-0.0500308
1.90318
-0.0588686
2.25625
-0.0668907
2.67706
-0.0720971
3.17889
-0.0717937
3.15199
-0.0676488
2.61565
-0.0609355
2.18071
-0.0534782
1.82625
-0.0455064
1.53078
-0.0364908
1.26637
-0.0249929
0.987016
-0.0130088
0.662394
-0.00396161
0.335812
0.0853436
-0.00623844
0.138123
-0.0177174
0.440525
-0.0285195
0.775633
-0.0365696
1.08328
-0.0442397
1.35033
-0.0532904
1.61533
-0.0636175
1.9135
-0.0743904
2.26702
-0.0841765
2.68685
-0.090174
3.18489
-0.0891781
3.15099
-0.0834507
2.60992
-0.0754004
2.17266
-0.0663964
1.81724
-0.0560781
1.52047
-0.0439615
1.25425
-0.0296773
0.972732
-0.0157245
0.648442
-0.00487903
0.324966
0.0804645
-0.00842222
0.146545
-0.0236613
0.455765
-0.0377754
0.789747
-0.0479741
1.09348
-0.0571235
1.35948
-0.0680432
1.62625
-0.0805215
1.92598
-0.0935774
2.28008
-0.10485
2.69812
-0.11088
3.19092
-0.109165
3.14928
-0.102103
2.60286
-0.0917818
2.16234
-0.0798097
1.80527
-0.0667257
1.50738
-0.0518938
1.23942
-0.0353957
0.956234
-0.0189961
0.632042
-0.00581714
0.311787
0.0746474
-0.0104112
0.156956
-0.0294131
0.474766
-0.0478012
0.808135
-0.0617074
1.10738
-0.0739469
1.37172
-0.0877847
1.64009
-0.103375
1.94157
-0.118868
2.29557
-0.131392
2.71064
-0.137313
3.19684
-0.133886
3.14585
-0.123978
2.59295
-0.111052
2.14941
-0.0963575
1.79058
-0.0802058
1.49123
-0.0618267
1.22104
-0.0417148
0.936122
-0.0223073
0.612634
-0.00679011
0.29627
0.0678573
-0.0149985
0.171955
-0.0407696
0.500538
-0.0643697
0.831735
-0.0821472
1.12516
-0.0977079
1.38728
-0.115171
1.65755
-0.133744
1.96015
-0.151213
2.31304
-0.164329
2.72376
-0.168786
3.2013
-0.16213
3.13919
-0.149151
2.57997
-0.132796
2.13306
-0.114122
1.7719
-0.0939747
1.47108
-0.0723
1.19937
-0.0494977
0.913319
-0.0267677
0.589905
-0.0079603
0.277463
0.059897
-0.0190169
0.190972
-0.0525114
0.534032
-0.0841913
0.863415
-0.108712
1.14968
-0.130605
1.40917
-0.152671
1.67962
-0.174159
1.98163
-0.192678
2.33156
-0.20468
2.73576
-0.205994
3.20261
-0.195529
3.12873
-0.178132
2.56258
-0.157518
2.11244
-0.135381
1.74977
-0.112042
1.44774
-0.0867609
1.17409
-0.0591323
0.885691
-0.0313083
0.562081
-0.00904299
0.255197
0.050854
-0.0330837
0.224055
-0.078731
0.579679
-0.118853
0.903538
-0.149701
1.18053
-0.177159
1.43663
-0.203274
1.70574
-0.226582
2.00494
-0.244612
2.34959
-0.254104
2.74525
-0.251
3.19951
-0.233995
3.11172
-0.21072
2.5393
-0.185295
2.08702
-0.158478
1.72295
-0.130651
1.41992
-0.101223
1.14466
-0.0696239
0.854092
-0.0371465
0.529603
-0.0103906
0.228442
0.0404634
-0.0471499
0.271205
-0.115938
0.648467
-0.170945
0.958545
-0.209577
1.21916
-0.243322
1.47037
-0.271607
1.73402
-0.294015
2.02735
-0.308575
2.36415
-0.311833
2.74851
-0.300156
3.18783
-0.276032
3.0876
-0.247515
2.51078
-0.217216
2.05672
-0.186716
1.69245
-0.155903
1.3891
-0.1224
1.11116
-0.083856
0.815548
-0.0418628
0.48761
-0.0103155
0.196894
0.0301478
-0.0323739
0.303579
-0.0901365
0.70623
-0.141308
1.00972
-0.185178
1.26303
-0.226341
1.51154
-0.262601
1.77028
-0.296727
2.06148
-0.326034
2.39345
-0.34665
2.76913
-0.352437
3.19362
-0.337603
3.07276
-0.308095
2.48128
-0.270778
2.0194
-0.228573
1.65024
-0.183538
1.34407
-0.135617
1.06323
-0.0835147
0.763446
-0.0358238
0.439919
-0.00782009
0.168891
0.0223277
-0.0104166
0.313996
-0.0403966
0.73621
-0.0781228
1.04744
-0.114958
1.29986
-0.150762
1.54734
-0.184822
1.80434
-0.216084
2.09274
-0.24168
2.41905
-0.257418
2.78487
-0.256139
3.19234
-0.233914
3.05054
-0.201449
2.44881
-0.164403
1.98236
-0.125719
1.61156
-0.0864408
1.30479
-0.0485027
1.0253
-0.0177133
0.732657
-0.0006934
0.422899
0.00199119
0.166206
0.0243189
0.00276063
0.311235
-0.0183624
0.757333
-0.0459824
1.07506
-0.075199
1.32908
-0.104821
1.57696
-0.134152
1.83367
-0.161434
2.12002
-0.183447
2.44106
-0.196025
2.79744
-0.192959
3.18928
-0.173297
3.03088
-0.143671
2.41918
-0.107726
1.94641
-0.0698312
1.57367
-0.0345184
1.26948
-0.00529536
0.996073
0.0135248
0.713837
0.0154941
0.42093
0.00647027
0.17523
0.0307892
0.00284745
0.308388
-0.00806521
0.768245
-0.0284999
1.0955
-0.0527358
1.35332
-0.0775255
1.60175
-0.102362
1.85851
-0.125605
2.14326
-0.144293
2.45975
-0.154327
2.80748
-0.149758
3.18471
-0.128787
3.00991
-0.0984782
2.38888
-0.0662387
1.91417
-0.0364678
1.5439
-0.0104536
1.24346
0.00981305
0.975806
0.0205725
0.703077
0.0181809
0.423321
0.00687611
0.186535
0.0376653
0.00518752
0.3032
-0.0024184
0.775851
-0.020141
1.11322
-0.0404511
1.37363
-0.0615012
1.6228
-0.0829507
1.87996
-0.103244
2.16356
-0.119866
2.47637
-0.128989
2.8166
-0.12557
3.18129
-0.107378
2.99171
-0.0831206
2.36462
-0.0581016
1.88915
-0.0328549
1.51865
-0.00819462
1.2188
0.0111115
0.9565
0.0191915
0.694997
0.0150862
0.427427
0.00520518
0.196416
0.0428705
0.00588149
0.297319
0.000582309
0.78115
-0.0150232
1.12883
-0.0335059
1.39211
-0.0524618
1.64176
-0.0716177
1.89911
-0.0898809
2.18182
-0.104978
2.49147
-0.113103
2.82473
-0.109415
3.1776
-0.0930437
2.97534
-0.0717078
2.34328
-0.0472556
1.8647
-0.0226993
1.49409
-0.00310503
1.19921
0.0100809
0.943314
0.015935
0.689143
0.0115439
0.431818
0.00373557
0.204224
0.046606
0.00390077
0.293418
3.66037e-05
0.785014
-0.0134757
1.14234
-0.0301219
1.40876
-0.0475962
1.65923
-0.0652578
1.91678
-0.0822436
2.1988
-0.0965668
2.50579
-0.105153
2.83331
-0.103858
3.1763
-0.0906264
2.96211
-0.070091
2.32275
-0.0484862
1.84309
-0.0301323
1.47574
-0.0130067
1.18208
0.000773407
0.929534
0.00594229
0.683974
0.00558995
0.43217
0.00205622
0.207758
0.0486623
0.00259705
0.290821
-0.000677725
0.788289
-0.0128682
1.15453
-0.0284871
1.42438
-0.0451965
1.67594
-0.0619738
1.93355
-0.0782143
2.21504
-0.0923081
2.51989
-0.101148
2.84215
-0.0997072
3.17486
-0.0864648
2.94887
-0.0693592
2.30564
-0.0519903
1.82573
-0.033657
1.4574
-0.0184341
1.16686
-0.00769894
0.918799
-0.00203383
0.678309
-0.00190981
0.432046
-0.000607183
0.206455
0.0480551
-0.0001788
0.291
-0.00361285
0.791723
-0.0141945
1.16511
-0.0285486
1.43873
-0.04428
1.69167
-0.0604489
1.94972
-0.0764415
2.23104
-0.0908094
2.53426
-0.100859
2.8522
-0.102943
3.17695
-0.0930537
2.93898
-0.0756916
2.28828
-0.0563808
1.80642
-0.0406753
1.4417
-0.027074
1.15326
-0.0171384
0.908863
-0.0104351
0.671606
-0.00552079
0.427132
-0.00170527
0.20264
0.0463498
-0.000580048
0.29158
-0.00537749
0.796521
-0.015619
1.17535
-0.028827
1.45194
-0.0440203
1.70687
-0.0599557
1.96566
-0.0759816
2.24706
-0.0907494
2.54902
-0.101599
2.86305
-0.103464
3.17881
-0.0933886
2.9289
-0.0792268
2.27412
-0.0643844
1.79157
-0.0473958
1.42471
-0.0338258
1.13969
-0.0219112
0.896949
-0.0135968
0.663292
-0.0079562
0.421491
-0.00244468
0.197128
0.0439051
-0.0025799
0.29416
-0.00799849
0.801939
-0.0175641
1.18492
-0.029948
1.46432
-0.0442838
1.7212
-0.0598059
1.98118
-0.0759171
2.26317
-0.0911791
2.56429
-0.10319
2.87506
-0.10847
3.18409
-0.103221
2.92366
-0.0882404
2.25914
-0.0703148
1.77365
-0.0559238
1.41032
-0.0414894
1.12526
-0.0302143
0.885674
-0.0201403
0.653218
-0.00995078
0.411301
-0.00306919
0.190247
0.0408359
-0.00389033
0.29805
-0.00929914
0.807348
-0.0186217
1.19424
-0.0306202
1.47632
-0.0445192
1.7351
-0.0597879
1.99645
-0.0760506
2.27944
-0.0920773
2.58031
-0.10599
2.88898
-0.114124
3.19223
-0.109348
2.91888
-0.0965329
2.24632
-0.0806097
1.75772
-0.0626361
1.39235
-0.0471409
1.10976
-0.0329713
0.871504
-0.0212034
0.64145
-0.0115266
0.401625
-0.00343
0.18215
0.0374059
-0.00443787
0.302488
-0.0107973
0.813708
-0.0200017
1.20344
-0.0315004
1.48782
-0.0448099
1.74841
-0.0597266
2.01136
-0.0760651
2.29578
-0.0928575
2.5971
-0.10805
2.90417
-0.117622
3.2018
-0.116082
2.91734
-0.105027
2.23527
-0.0869131
1.73961
-0.0693715
1.3748
-0.0532864
1.09367
-0.0402132
0.858431
-0.0269901
0.628227
-0.0128296
0.387464
-0.00362482
0.172945
0.0337811
-0.00446316
0.306951
-0.0111843
0.820429
-0.0204397
1.2127
-0.0317478
1.49913
-0.0448057
1.76147
-0.0595077
2.02607
-0.0758916
2.31216
-0.0931695
2.61438
-0.109721
2.92072
-0.122313
3.21439
-0.124007
2.91903
-0.11307
2.22433
-0.0974574
1.724
-0.0774033
1.35475
-0.0591017
1.07537
-0.0415512
0.84088
-0.0261664
0.612842
-0.0134288
0.374727
-0.0035643
0.163081
0.0302168
-0.00452298
0.311474
-0.0117803
0.827686
-0.0209092
1.22183
-0.03189
1.51011
-0.0446062
1.77419
-0.0590507
2.04051
-0.0754483
2.32856
-0.0933984
2.63233
-0.111862
2.93918
-0.127435
3.22996
-0.132074
2.92367
-0.124647
2.2169
-0.106115
1.70547
-0.085322
1.33396
-0.0638164
1.05387
-0.0465542
0.823618
-0.030804
0.597092
-0.0138113
0.357734
-0.00324792
0.152517
0.0269689
-0.00449978
0.315974
-0.0117253
0.834912
-0.020716
1.23082
-0.0315105
1.5209
-0.0440274
1.7867
-0.0582904
2.05477
-0.0747034
2.34497
-0.0929309
2.65056
-0.111684
2.95794
-0.12831
3.24659
-0.136347
2.93171
-0.130624
2.21118
-0.116907
1.69175
-0.0943661
1.31142
-0.0695821
1.02908
-0.0442398
0.798276
-0.0239921
0.576844
-0.0111433
0.344885
-0.00242971
0.143804
0.0245392
-0.00453996
0.320514
-0.0118564
0.842228
-0.0205549
1.23952
-0.0309816
1.53133
-0.0431755
1.7989
-0.057218
2.06882
-0.0735229
2.36127
-0.0921059
2.66914
-0.112691
2.97852
-0.133513
3.26741
-0.145293
2.94349
-0.142602
2.20849
-0.125865
1.67501
-0.10283
1.28838
-0.0735631
0.999817
-0.0468934
0.771606
-0.0230461
0.552996
-0.00720805
0.329047
-0.00239754
0.138993
0.0221416
-0.00445038
0.324964
-0.0115333
0.849311
-0.0199831
1.24797
-0.030131
1.54148
-0.0420198
1.81079
-0.0557802
2.08258
-0.0719758
2.37747
-0.0906958
2.68786
-0.111389
2.99922
-0.131379
3.2874
-0.144936
2.95705
-0.148034
2.21159
-0.139336
1.66631
-0.11463
1.26368
-0.0815643
0.966751
-0.03942
0.729462
0.000606122
0.51297
0.0221901
0.307463
0.0212427
0.13994
0.0433844
-0.00433712
0.329301
-0.0113453
0.856319
-0.0194602
1.25608
-0.0291665
1.55118
-0.0406208
1.82224
-0.0540731
2.09603
-0.0700808
2.39348
-0.0888875
2.70667
-0.110737
3.02107
-0.135311
3.31197
-0.15376
2.97549
-0.159115
2.21694
-0.147734
1.65493
-0.125665
1.24161
-0.0879288
0.929015
-0.0429918
0.684525
0.0104871
0.459491
0.0347517
0.283199
0.0154149
0.159277
0.0587993
-0.00410995
0.333411
-0.010822
0.863031
-0.0186487
1.26391
-0.0280032
1.56054
-0.0391051
1.83334
-0.0521861
2.10911
-0.0679319
2.40922
-0.0867081
2.72545
-0.108596
3.04295
-0.132192
3.33557
-0.150953
2.99426
-0.161435
2.22743
-0.162314
1.65581
-0.142799
1.22209
-0.106222
0.892438
-0.0395855
0.617888
0.0620378
0.357868
0.162575
0.182661
0.172241
0.149611
0.231041
-0.00395702
0.337368
-0.0106353
0.869709
-0.0183388
1.27161
-0.0275865
1.56979
-0.0387708
1.84453
-0.0522496
2.12259
-0.0688455
2.42582
-0.0891252
2.74573
-0.114033
3.06786
-0.144301
3.36584
-0.171994
3.02195
-0.18778
2.24321
-0.186812
1.65484
-0.173051
1.20833
-0.136404
0.855792
-0.0936714
0.575155
-0.117126
0.381323
-0.364663
0.430198
-0.92613
0.711078
0.893601
-1.58869
-0.00374185
0.34111
-0.0101263
0.876094
-0.0176318
1.27912
-0.0267263
1.57888
-0.0377905
1.85559
-0.0513081
2.13611
-0.0682314
2.44274
-0.0894257
2.76692
-0.115837
3.09427
-0.147383
3.39738
-0.176963
3.05153
-0.199793
2.26604
-0.221669
1.67672
-0.225101
1.21176
-0.219631
0.850321
-0.298049
0.653573
-0.688306
0.771581
-1.40897
1.15086
-2.02324
1.32535
1.22017
-2.3498
-0.0035501
0.34466
-0.00971352
0.882257
-0.0169415
1.28635
-0.0257578
1.5877
-0.036618
1.86645
-0.0501505
2.14964
-0.0673866
2.45998
-0.0893101
2.78884
-0.117568
3.12253
-0.154595
3.43441
-0.194057
3.09099
-0.226613
2.2986
-0.24693
1.69704
-0.255706
1.22054
-0.34377
0.938386
-0.746009
1.05581
-1.50792
1.53349
-2.09045
1.73339
-2.33475
1.56965
1.33667
-2.45125
-0.00330117
0.347961
-0.00906925
0.888025
-0.0160231
1.2933
-0.0246291
1.5963
-0.0353152
1.87714
-0.0488194
2.16314
-0.0662379
2.4774
-0.0888928
2.8115
-0.118707
3.15234
-0.157554
3.47326
-0.198728
3.13216
-0.236747
2.33661
-0.280844
1.74113
-0.373914
1.31361
-0.697645
1.26212
-1.41233
1.7705
-2.01116
2.13231
-2.25514
1.97738
-2.37085
1.68536
1.4032
-2.43739
-0.00305187
0.351013
-0.00848644
0.89346
-0.0150883
1.2999
-0.0233571
1.60457
-0.0338461
1.88763
-0.0472791
2.17658
-0.0648719
2.49499
-0.0880866
2.83471
-0.119398
3.18366
-0.163197
3.51706
-0.216024
3.18499
-0.269387
2.38998
-0.320264
1.79201
-0.492947
1.48629
-1.07192
1.84109
-1.76335
2.46192
-2.09672
2.46569
-2.24978
2.13043
-2.33406
1.76964
1.46954
-2.40039
-0.00292396
0.353937
-0.00817329
0.898709
-0.0147533
1.30648
-0.0230882
1.61291
-0.0338184
1.89836
-0.0474771
2.19024
-0.0654755
2.51299
-0.0895415
2.85878
-0.122558
3.21667
-0.16861
3.56311
-0.222755
3.23914
-0.275975
2.4432
-0.373474
1.88951
-0.748607
1.86142
-1.46732
2.5598
-1.95408
2.94869
-2.15801
2.66961
-2.26644
2.23887
-2.34408
1.84728
1.53451
-2.40905
-0.00296688
0.356904
-0.00851199
0.904254
-0.015407
1.31338
-0.0241018
1.6216
-0.0352829
1.90954
-0.049545
2.2045
-0.0683798
2.53182
-0.0935801
2.88398
-0.128268
3.25136
-0.178683
3.61352
-0.242298
3.30275
-0.315055
2.51596
-0.498538
2.07299
-1.02591
2.3888
-1.65627
3.19016
-1.94506
3.23748
-2.09552
2.82007
-2.21193
2.35527
-2.30672
1.94207
1.59806
-2.37027
-0.00293833
0.359842
-0.00862756
0.909944
-0.0159369
1.32069
-0.0251491
1.63081
-0.0368523
1.92124
-0.0517348
2.21938
-0.0713314
2.55142
-0.0976674
2.91032
-0.134283
3.28798
-0.18727
3.66651
-0.251639
3.36712
-0.340379
2.60469
-0.614579
2.34719
-1.23948
3.0137
-1.74061
3.69129
-1.95192
3.44878
-2.09685
2.965
-2.22475
2.48318
-2.33974
2.05705
1.65875
-2.40043
-0.00284962
0.362692
-0.00890765
0.916002
-0.0166039
1.32838
-0.0262369
1.64045
-0.0384177
1.93342
-0.0539543
2.23492
-0.074433
2.5719
-0.101946
2.93783
-0.140071
3.3261
-0.195929
3.72237
-0.269629
3.44082
-0.395202
2.73027
-0.761579
2.71357
-1.38393
3.63606
-1.75192
4.05927
-1.931
3.62786
-2.03908
3.07309
-2.13363
2.57773
-2.20569
2.12911
1.65323
-2.20017
-0.00270661
0.365399
-0.00879532
0.92209
-0.0169594
1.33655
-0.0271907
1.65068
-0.0399807
1.94621
-0.0561643
2.2511
-0.0774015
2.59314
-0.105997
2.96642
-0.145908
3.36601
-0.203813
3.78027
-0.283418
3.52042
-0.44651
2.89336
-0.882271
3.14933
-1.43943
4.19322
-1.71202
4.33187
-1.87391
3.78975
-1.97262
3.1718
-1.97976
2.58487
-1.91957
2.06892
1.63194
-1.89828
-0.0024005
0.367799
-0.00888533
0.928575
-0.0173752
1.34504
-0.0279408
1.66124
-0.0410847
1.95935
-0.0576537
2.26767
-0.0792683
2.61475
-0.108129
2.99529
-0.148097
3.40598
-0.20474
3.83692
-0.291192
3.60688
-0.489434
3.0916
-0.956527
3.61642
-1.40575
4.64244
-1.58405
4.51017
-1.65877
3.86447
-1.6688
3.18182
-1.52704
2.4431
-1.03206
1.57394
0.599881
-0.00193613
0.369735
-0.00829779
0.934937
-0.0172873
1.35403
-0.0286331
1.67259
-0.0427633
1.97349
-0.0604998
2.28541
-0.0837216
2.63797
-0.114996
3.02656
-0.158612
3.4496
-0.222266
3.90057
-0.324038
3.70865
-0.566469
3.33403
-1.08631
4.13626
-1.46023
5.01637
-1.56433
4.61427
-1.57071
3.87084
-1.47518
3.0863
-1.23734
2.20526
-0.65103
0.987635
-0.0511491
-0.00149943
0.371235
-0.00785338
0.941291
-0.0171072
1.36328
-0.0289797
1.68446
-0.0438822
1.98839
-0.0628267
2.30435
-0.0877724
2.66292
-0.12136
3.06015
-0.168938
3.49718
-0.237281
3.96891
-0.354873
3.82624
-0.650666
3.62983
-1.19593
4.68152
-1.47995
5.30039
-1.54984
4.68416
-1.53381
3.85481
-1.33298
2.88548
-0.805011
1.67729
-0.120967
0.30359
-0.172116
-0.000697784
0.371932
-0.00640822
0.947001
-0.0160277
1.3729
-0.0286769
1.69711
-0.0444393
2.00415
-0.0644278
2.32434
-0.09083
2.68932
-0.12684
3.09616
-0.177579
3.54791
-0.254107
4.04544
-0.395562
3.9677
-0.744648
3.97891
-1.27656
5.21344
-1.4678
5.49163
-1.49935
4.71571
-1.41851
3.77397
-1.11889
2.58586
-0.338396
0.896793
0.0334874
-0.0682937
-0.138628
0.000176077
0.371756
-0.00478504
0.951962
-0.0144282
1.38254
-0.027534
1.71022
-0.0438496
2.02047
-0.0649147
2.3454
-0.0929123
2.71732
-0.130677
3.13392
-0.183722
3.60096
-0.266975
4.12869
-0.429696
4.13042
-0.828693
4.37791
-1.30871
5.69345
-1.43737
5.62029
-1.44763
4.72597
-1.25243
3.57876
-0.725365
2.0588
-0.070484
0.241911
0.0373346
-0.176112
-0.101294
0.00213022
0.369626
-0.00114889
0.955242
-0.0114655
1.39286
-0.0253246
1.72407
-0.042144
2.03728
-0.0639576
2.36722
-0.0928782
2.74624
-0.132374
3.17342
-0.187584
3.65617
-0.27782
4.21893
-0.465424
4.31802
-0.915899
4.82838
-1.31195
6.0895
-1.38666
5.695
-1.35401
4.69333
-1.07402
3.29877
-0.363322
1.3481
-0.0171542
-0.104256
0.00802953
-0.201296
-0.0932642
0.00376354
0.365863
0.00175023
0.957255
-0.00791054
1.40252
-0.0213027
1.73747
-0.0382571
2.05424
-0.0608192
2.38978
-0.0907869
2.77621
-0.131092
3.21372
-0.188227
3.7133
-0.285547
4.31625
-0.489802
4.52228
-0.960011
5.29859
-1.25604
6.38553
-1.29749
5.73645
-1.19417
4.59001
-0.827848
2.93244
-0.117329
0.637582
0.0308645
-0.25245
0.0174697
-0.187901
-0.0757944
0.00602071
0.359842
0.00576549
0.95751
-0.0023749
1.41066
-0.0155995
1.75069
-0.0326558
2.0713
-0.0552728
2.4124
-0.0851238
2.80606
-0.125885
3.25448
-0.183253
3.77067
-0.283611
4.41661
-0.506586
4.74525
-0.97644
5.76845
-1.18934
6.59843
-1.20945
5.75656
-1.03265
4.41321
-0.523484
2.42327
-0.00459754
0.118695
0.0208356
-0.277884
0.0177959
-0.184861
-0.0579986
0.00878938
0.351053
0.0114477
0.954852
0.00545473
1.41665
-0.00622287
1.76237
-0.0234266
2.0885
-0.0459916
2.43496
-0.0753683
2.83543
-0.115167
3.29428
-0.17231
3.82782
-0.277804
4.5221
-0.508126
4.97557
-0.934053
6.19437
-1.07881
6.74318
-1.07115
5.74891
-0.837414
4.17947
-0.303764
1.88962
-0.0474936
-0.137576
-0.0249949
-0.300382
-0.00213989
-0.207716
-0.0601385
0.0128611
0.338191
0.0195914
0.948121
0.0155862
1.42066
0.00502014
1.77294
-0.011729
2.10525
-0.0324385
2.45567
-0.0601486
2.86314
-0.0979516
3.33208
-0.151653
3.88152
-0.253164
4.62361
-0.47895
5.20136
-0.851064
6.56649
-0.950796
6.84291
-0.942785
5.7409
-0.709078
3.94576
-0.161761
1.34231
-0.053189
-0.246148
-0.0254956
-0.328076
0.000402482
-0.233615
-0.059736
0.0177984
0.320393
0.0299794
0.93594
0.0296697
1.42097
0.0208796
1.78173
0.00640148
2.11973
-0.012187
2.47426
-0.0375412
2.8885
-0.0722109
3.36675
-0.121254
3.93056
-0.217955
4.72031
-0.428087
5.41149
-0.700993
6.83939
-0.775754
6.91768
-0.724549
5.6897
-0.433903
3.65512
0.0146006
0.893804
0.00394302
-0.23549
0.00405
-0.328183
0.0289066
-0.258471
-0.0308293
0.0240909
0.296302
0.0432906
0.916741
0.0472177
1.41704
0.0411506
1.78779
0.0300888
2.13079
0.0142367
2.49011
-0.00757889
2.91031
-0.0361493
3.39532
-0.0768862
3.9713
-0.154623
4.79805
-0.320574
5.57744
-0.503719
7.02254
-0.584083
6.99804
-0.605153
5.71077
-0.455002
3.50497
-0.240042
0.678843
-0.278133
-0.197399
-0.166292
-0.440024
-0.0420749
-0.382688
-0.0729042
0.0313833
0.264919
0.0600145
0.888109
0.0712077
1.40585
0.0698982
1.7891
0.0622416
2.13844
0.0499779
2.50238
0.0338868
2.92641
0.0121681
3.41704
-0.0204088
4.00387
-0.0648078
4.84245
-0.167304
5.67994
-0.268709
7.12394
-0.345576
7.07491
-0.44785
5.81304
-0.531623
3.58874
-0.673461
0.820681
-0.703068
-0.167792
-0.505536
-0.637556
-0.246027
-0.642197
-0.318931
0.0397193
0.2252
0.080006
0.847823
0.0993061
1.38655
0.103717
1.78469
0.101354
2.14081
0.0941812
2.50955
0.0855754
2.93501
0.0739509
3.42867
0.061332
4.01649
0.0494146
4.85437
0.0608661
5.66849
0.0694687
7.11534
0.0376426
7.10673
-0.0549213
5.9056
-0.266378
3.8002
-0.660183
1.21449
-0.762092
-0.0658823
-0.615473
-0.784176
-0.344655
-0.913015
-0.663587
0.0477925
0.177407
0.103857
0.791758
0.135938
1.35447
0.14791
1.77272
0.151789
2.13693
0.150323
2.51101
0.149919
2.93541
0.151829
3.42676
0.163268
4.00505
0.188971
4.82866
0.307159
5.5503
0.511471
6.91103
0.673203
6.945
0.845669
5.73314
0.686842
3.95902
0.159532
1.7418
-0.222121
0.315771
-0.379355
-0.626941
-0.25846
-1.03391
-0.922046
0.0523568
0.12505
0.127668
0.716447
0.175714
1.30642
0.198579
1.74985
0.210948
2.12456
0.216822
2.50514
0.227024
2.92521
0.242033
3.41175
0.277488
3.9696
0.357136
4.74902
0.599316
5.30812
1.12197
6.38837
1.52774
6.53923
1.91564
5.34524
1.91888
3.95579
1.40492
2.25575
0.900859
0.819836
0.382951
-0.109032
0.120199
-0.771159
-0.801847
0.0486222
0.076428
0.152078
0.612991
0.224437
1.23406
0.260915
1.71338
0.282104
2.10337
0.296167
2.49108
0.315644
2.90574
0.344886
3.38251
0.404544
3.90994
0.53624
4.61732
0.864338
4.98002
1.57613
5.67659
1.99721
6.11815
2.2731
5.06934
2.31486
3.91403
1.93319
2.63742
1.42112
1.33191
0.92866
0.383427
0.394629
-0.237128
-0.407218
0.0377485
0.0386795
0.171838
0.478902
0.273072
1.13283
0.329236
1.65721
0.361662
2.07094
0.385772
2.46697
0.412794
2.87871
0.45372
3.34158
0.518951
3.84471
0.663008
4.47326
0.989215
4.65382
1.69144
4.97436
2.0767
5.73288
2.29526
4.85079
2.33036
3.87892
2.07425
2.89354
1.56263
1.84352
0.989871
0.956189
0.405461
0.347281
-0.00175673
0.02884
0.00983955
0.196242
0.3115
0.330913
0.998158
0.409682
1.57844
0.452592
2.02803
0.486052
2.43351
0.515394
2.84937
0.556911
3.30006
0.613147
3.78848
0.731534
4.35487
0.939157
4.44619
1.46408
4.44944
1.8663
5.33067
1.96965
4.74743
1.94088
3.90769
1.74099
3.09343
1.32601
2.2585
0.84355
1.43865
0.366794
0.824037
0.365037
0.0306999
-0.0208604
0.195268
0.146931
0.386798
0.806628
0.495112
1.47013
0.551187
1.97196
0.59417
2.39052
0.624559
2.81898
0.65935
3.26527
0.69334
3.75449
0.761889
4.28633
0.872206
4.33588
1.19219
4.12946
1.59791
4.92494
1.63516
4.71018
1.5405
4.00235
1.35282
3.28111
1.03773
2.57359
0.631016
1.84536
0.249257
1.2058
0.614294
0.0350687
-0.0559291
0.138273
0.0437277
0.338962
0.605938
0.471712
1.33738
0.533074
1.9106
0.561053
2.36255
0.571022
2.80901
0.574721
3.26157
0.566243
3.76296
0.555382
4.29719
0.564171
4.32709
0.678594
4.01504
0.87302
4.73052
0.874133
4.70907
0.785885
4.0906
0.669319
3.39767
0.512745
2.73017
0.312092
2.04602
0.117438
1.40045
0.731732
0.021757
-0.0776861
0.0541308
0.0113538
0.165161
0.494908
0.274813
1.22773
0.347221
1.83819
0.388741
2.32103
0.412806
2.78495
0.427997
3.24638
0.427031
3.76393
0.417839
4.30638
0.404451
4.34048
0.453682
3.96581
0.590399
4.5938
0.598214
4.70125
0.531657
4.15716
0.434187
3.49514
0.313644
2.85071
0.17494
2.18472
0.0525102
1.52288
0.784242
0.00586565
-0.0835518
-0.00182863
0.0190481
0.0343812
0.458698
0.10409
1.15802
0.170105
1.77217
0.222781
2.26835
0.264939
2.74279
0.291183
3.22014
0.303572
3.75154
0.304049
4.3059
0.284515
4.36001
0.298214
3.95211
0.377649
4.51436
0.378096
4.70081
0.323602
4.21165
0.244577
3.57417
0.159535
2.93575
0.0738099
2.27045
0.000228324
1.59646
0.784471
-0.0135921
-0.0699597
-0.0494703
0.0549264
-0.062781
0.472009
-0.0273741
1.12261
0.0296772
1.71512
0.0879285
2.2101
0.142101
2.68862
0.178729
3.18351
0.207473
3.7228
0.213571
4.2998
0.192295
4.38129
0.192177
3.95223
0.225587
4.48095
0.207429
4.71896
0.164678
4.2544
0.113793
3.62505
0.0622559
2.98729
0.00840185
2.3243
-0.0262909
1.63116
0.75818
-0.0302216
-0.0397381
-0.0862295
0.110934
-0.123532
0.509311
-0.113681
1.11276
-0.0660791
1.66752
-0.00758349
2.1516
0.047863
2.63317
0.0949058
3.13647