/*--------------------------------*- C++ -*----------------------------------*\
| =========                 |                                                 |
| \\      /  F ield         | OpenFOAM: The Open Source CFD Toolbox           |
|  \\    /   O peration     | Version:  v2012                                 |
|   \\  /    A nd           | Website:  www.openfoam.com                      |
|    \\/     M anipulation  |                                                 |
\*---------------------------------------------------------------------------*/
FoamFile
{
    version     2.0;
    format      ascii;
    class       volVectorField;
    location    "29";
    object      U;
}
// * * * * * * * * * * * * * * * * * * * * * * * * * * * * * * * * * * * * * //

dimensions      [0 1 -1 0 0 0 0];


internalField   nonuniform List<vector> 
2200
(
(0.878845 -0.0304145 0)
(1.00578 -0.0512882 0)
(1.00326 -0.0354089 0)
(1.00024 -0.0244752 0)
(0.999867 -0.0167162 0)
(0.999965 -0.0107869 0)
(0.999964 -0.00694339 0)
(1.00004 -0.00427393 0)
(1.00011 -0.00224868 0)
(1.00017 -0.000665804 0)
(1.00011 0.00086486 0)
(1.0001 0.00247711 0)
(1.00005 0.00446513 0)
(0.999901 0.0071259 0)
(0.999979 0.0109062 0)
(0.999878 0.0167534 0)
(1.00023 0.0245286 0)
(1.00344 0.0351925 0)
(1.00588 0.051347 0)
(0.87896 0.0303789 0)
(0.711966 -0.0327646 0)
(0.996609 -0.0630225 0)
(1.03325 -0.0561749 0)
(1.02484 -0.0464323 0)
(1.01585 -0.0361787 0)
(1.00967 -0.0265083 0)
(1.00595 -0.0181629 0)
(1.00376 -0.0114497 0)
(1.00247 -0.00616939 0)
(1.00196 -0.00168898 0)
(1.00189 0.00255859 0)
(1.00243 0.0069621 0)
(1.00368 0.0121437 0)
(1.00595 0.0187437 0)
(1.00956 0.0271289 0)
(1.0157 0.0367691 0)
(1.02471 0.0469875 0)
(1.03296 0.0572001 0)
(0.99656 0.0631493 0)
(0.711686 0.0329295 0)
(0.535535 -0.0238912 0)
(0.96987 -0.0569209 0)
(1.05643 -0.0547118 0)
(1.05212 -0.0486843 0)
(1.03602 -0.0402796 0)
(1.0244 -0.0320838 0)
(1.01598 -0.0238926 0)
(1.01046 -0.0161164 0)
(1.00727 -0.00894861 0)
(1.00577 -0.00248681 0)
(1.00571 0.00379061 0)
(1.00713 0.0102403 0)
(1.01026 0.0173384 0)
(1.01568 0.024964 0)
(1.02405 0.0328053 0)
(1.0358 0.0409071 0)
(1.05191 0.0491342 0)
(1.05634 0.0539647 0)
(0.969261 0.0574177 0)
(0.53463 0.0238866 0)
(0.392275 -0.0136403 0)
(0.911762 -0.0464176 0)
(1.05746 -0.0469146 0)
(1.06972 -0.0444184 0)
(1.05501 -0.0381701 0)
(1.03924 -0.0313807 0)
(1.0274 -0.0247591 0)
(1.01891 -0.0176779 0)
(1.01367 -0.0102847 0)
(1.01116 -0.0027703 0)
(1.01112 0.00483565 0)
(1.0135 0.0121757 0)
(1.01855 0.0192535 0)
(1.02679 0.0260133 0)
(1.03862 0.0325181 0)
(1.0544 0.039151 0)
(1.0689 0.0453668 0)
(1.05605 0.0478298 0)
(0.910341 0.0468006 0)
(0.390634 0.0137186 0)
(0.307673 -0.00451204 0)
(0.846522 -0.0323536 0)
(1.04923 -0.0399588 0)
(1.07943 -0.0382811 0)
(1.06835 -0.0337534 0)
(1.05178 -0.0282086 0)
(1.0381 -0.0226882 0)
(1.02781 -0.0166838 0)
(1.02075 -0.00995191 0)
(1.01706 -0.00257947 0)
(1.01684 0.00518128 0)
(1.02014 0.0123179 0)
(1.02697 0.0188005 0)
(1.03735 0.0246705 0)
(1.05083 0.0298923 0)
(1.06715 0.0351465 0)
(1.07796 0.039449 0)
(1.04753 0.0410965 0)
(0.843888 0.032721 0)
(0.305023 0.00466555 0)
(0.264447 0.000128882 0)
(0.789232 -0.0199716 0)
(1.03326 -0.0312355 0)
(1.08323 -0.0318028 0)
(1.07706 -0.0287331 0)
(1.06075 -0.024107 0)
(1.04717 -0.019707 0)
(1.03627 -0.0146249 0)
(1.02842 -0.0085948 0)
(1.02408 -0.00173218 0)
(1.02382 0.0053823 0)
(1.02773 0.0120674 0)
(1.03528 0.0177552 0)
(1.04569 0.0224462 0)
(1.05909 0.0263424 0)
(1.07542 0.0306334 0)
(1.08126 0.0332857 0)
(1.03057 0.032513 0)
(0.784976 0.0204232 0)
(0.260781 1.85021e-05 0)
(0.240563 0.00107017 0)
(0.738536 -0.0122342 0)
(1.01365 -0.025015 0)
(1.0834 -0.0267789 0)
(1.0822 -0.0245223 0)
(1.0672 -0.020514 0)
(1.05401 -0.0167447 0)
(1.04336 -0.0123209 0)
(1.03535 -0.00709914 0)
(1.03064 -0.000974734 0)
(1.03028 0.0053608 0)
(1.0343 0.0112024 0)
(1.04177 0.0160638 0)
(1.05209 0.019929 0)
(1.06516 0.0235222 0)
(1.07973 0.0270152 0)
(1.08026 0.0287155 0)
(1.00904 0.0265028 0)
(0.731938 0.0128308 0)
(0.235657 -0.000908249 0)
(0.226258 0.00092198 0)
(0.69562 -0.00797176 0)
(0.992731 -0.0206299 0)
(1.08177 -0.0229851 0)
(1.08619 -0.0211154 0)
(1.07255 -0.0176449 0)
(1.05925 -0.013996 0)
(1.0488 -0.00987754 0)
(1.0408 -0.00520168 0)
(1.03582 0.000105235 0)
(1.03527 0.0056062 0)
(1.03928 0.0105548 0)
(1.04652 0.0145523 0)
(1.05668 0.0181706 0)
(1.06957 0.0210267 0)
(1.08267 0.0238887 0)
(1.07757 0.025292 0)
(0.986596 0.0223098 0)
(0.686827 0.00864893 0)
(0.220077 -0.000771222 0)
(0.217062 0.000676547 0)
(0.661505 -0.00535886 0)
(0.973086 -0.0169376 0)
(1.07919 -0.0195558 0)
(1.08942 -0.0180263 0)
(1.07717 -0.0150525 0)
(1.0638 -0.011716 0)
(1.05337 -0.00796493 0)
(1.04556 -0.00374517 0)
(1.04067 0.00100491 0)
(1.03999 0.00606449 0)
(1.04365 0.0103687 0)
(1.05058 0.0140003 0)
(1.06 0.0169908 0)
(1.07301 0.0196488 0)
(1.08471 0.0220831 0)
(1.07301 0.0228026 0)
(0.963511 0.0191392 0)
(0.649059 0.00630083 0)
(0.20904 -0.000472105 0)
(0.210464 0.000391549 0)
(0.633735 -0.00375996 0)
(0.953737 -0.0140801 0)
(1.0754 -0.0169889 0)
(1.09197 -0.0159193 0)
(1.0811 -0.0132273 0)
(1.06756 -0.00992383 0)
(1.05708 -0.00627399 0)
(1.04941 -0.00224241 0)
(1.04473 0.00217802 0)
(1.04379 0.00678781 0)
(1.04682 0.0105893 0)
(1.05328 0.0137388 0)
(1.06292 0.0163166 0)
(1.07596 0.0189286 0)
(1.08563 0.0205982 0)
(1.06721 0.02066 0)
(0.941652 0.0166254 0)
(0.618106 0.0048609 0)
(0.200497 -0.000152171 0)
(0.205684 0.000140928 0)
(0.612581 -0.00254262 0)
(0.93765 -0.0112581 0)
(1.07234 -0.0141694 0)
(1.09459 -0.0133992 0)
(1.08504 -0.0111856 0)
(1.07111 -0.00836349 0)
(1.0602 -0.00507691 0)
(1.05233 -0.00114428 0)
(1.04757 0.00326335 0)
(1.04626 0.00764188 0)
(1.0488 0.0113836 0)
(1.05492 0.014252 0)
(1.06489 0.0165762 0)
(1.07802 0.0180839 0)
(1.08615 0.0192765 0)
(1.06094 0.0189636 0)
(0.920652 0.014483 0)
(0.591822 0.00390921 0)
(0.192985 0.000177008 0)
(0.202204 3.8451e-06 0)
(0.597076 -0.00142238 0)
(0.923319 -0.00840506 0)
(1.06926 -0.0110982 0)
(1.09731 -0.0104416 0)
(1.08911 -0.00842483 0)
(1.07491 -0.00581054 0)
(1.06346 -0.002766 0)
(1.05492 0.000793193 0)
(1.04946 0.00497683 0)
(1.04782 0.00892764 0)
(1.05048 0.012241 0)
(1.05695 0.0144528 0)
(1.06676 0.0158972 0)
(1.07986 0.0170128 0)
(1.08623 0.0176231 0)
(1.0545 0.0168065 0)
(0.901636 0.0121687 0)
(0.571048 0.00312327 0)
(0.186436 0.000372816 0)
(0.200301 -7.29378e-05 0)
(0.58682 -0.000415287 0)
(0.912004 -0.00518579 0)
(1.067 -0.00741126 0)
(1.09984 -0.00676812 0)
(1.09294 -0.00495102 0)
(1.07918 -0.00260613 0)
(1.06782 0.000149361 0)
(1.05893 0.00324782 0)
(1.05285 0.00675766 0)
(1.05084 0.0098392 0)
(1.05337 0.0122275 0)
(1.05963 0.0137854 0)
(1.06929 0.0147675 0)
(1.08164 0.0156977 0)
(1.08601 0.0158856 0)
(1.04802 0.0147022 0)
(0.884168 0.0098857 0)
(0.554481 0.00244835 0)
(0.180526 0.000421132 0)
(0.200215 -0.000157008 0)
(0.582309 0.000600433 0)
(0.904219 -0.00214772 0)
(1.06506 -0.00437599 0)
(1.10235 -0.00361401 0)
(1.09662 -0.0017677 0)
(1.08337 0.000565691 0)
(1.07226 0.00334314 0)
(1.06346 0.00629441 0)
(1.05712 0.00931111 0)
(1.05447 0.0118213 0)
(1.05601 0.0135055 0)
(1.06131 0.0143434 0)
(1.06991 0.0150473 0)
(1.08149 0.0147232 0)
(1.08387 0.0143637 0)
(1.03972 0.0126154 0)
(0.867906 0.00784901 0)
(0.541797 0.00198667 0)
(0.17568 0.000406847 0)
(0.20145 7.62931e-05 0)
(0.582185 0.00122726 0)
(0.898297 0.000107086 0)
(1.06403 -0.00104646 0)
(1.10452 -0.000269566 0)
(1.0996 0.0014396 0)
(1.08645 0.00364535 0)
(1.07519 0.00626982 0)
(1.06618 0.00914666 0)
(1.05946 0.0119115 0)
(1.05613 0.0141891 0)
(1.0569 0.0153122 0)
(1.06149 0.0156201 0)
(1.06958 0.0154229 0)
(1.08051 0.0145521 0)
(1.08144 0.013776 0)
(1.03216 0.0117671 0)
(0.85412 0.00683048 0)
(0.531268 0.00194226 0)
(0.171264 0.000428507 0)
(0.204349 0.000486475 0)
(0.584129 0.00183401 0)
(0.897368 0.00282988 0)
(1.0633 0.00187111 0)
(1.10668 0.00313542 0)
(1.1024 0.00503412 0)
(1.08896 0.00732658 0)
(1.07708 0.00987866 0)
(1.06739 0.0126894 0)
(1.05999 0.0152622 0)
(1.05598 0.0171912 0)
(1.05616 0.0176698 0)
(1.06041 0.0173232 0)
(1.06859 0.0164273 0)
(1.07856 0.015201 0)
(1.07734 0.0136701 0)
(1.02278 0.0109274 0)
(0.840308 0.00609494 0)
(0.521591 0.00201389 0)
(0.166965 0.000444042 0)
(0.209858 0.000615518 0)
(0.590649 0.00275656 0)
(0.899839 0.00461636 0)
(1.06514 0.00547638 0)
(1.10954 0.00705787 0)
(1.10583 0.00904056 0)
(1.09227 0.0114366 0)
(1.07992 0.0141051 0)
(1.06945 0.0168192 0)
(1.06087 0.0191755 0)
(1.05561 0.0206479 0)
(1.05481 0.0204668 0)
(1.05859 0.0193125 0)
(1.06626 0.0176218 0)
(1.07539 0.0158633 0)
(1.07288 0.0139398 0)
(1.01482 0.0109287 0)
(0.829343 0.00617715 0)
(0.512826 0.00224031 0)
(0.162537 0.00045655 0)
(0.215464 0.000647105 0)
(0.598547 0.00332897 0)
(0.904557 0.00635669 0)
(1.06846 0.00792115 0)
(1.11357 0.0100786 0)
(1.11019 0.0127351 0)
(1.09656 0.0156825 0)
(1.08395 0.0188035 0)
(1.07296 0.0218732 0)
(1.06351 0.0244039 0)
(1.05704 0.025475 0)
(1.05464 0.024632 0)
(1.05703 0.0228085 0)
(1.0637 0.0205944 0)
(1.07178 0.0181543 0)
(1.06692 0.0153291 0)
(1.00403 0.0115264 0)
(0.815449 0.00666833 0)
(0.502225 0.00265762 0)
(0.157333 0.000512551 0)
(0.223973 0.000836375 0)
(0.612378 0.0042067 0)
(0.914371 0.00853789 0)
(1.07406 0.0111354 0)
(1.11853 0.0135176 0)
(1.11535 0.0164875 0)
(1.10138 0.0197301 0)
(1.08823 0.0235734 0)
(1.07632 0.0272437 0)
(1.06547 0.0302897 0)
(1.05691 0.0313443 0)
(1.05305 0.0304119 0)
(1.05437 0.0279964 0)
(1.06014 0.0248187 0)
(1.06705 0.0215053 0)
(1.06054 0.0179552 0)
(0.994795 0.0135599 0)
(0.804464 0.00822497 0)
(0.491693 0.00335669 0)
(0.15145 0.000616432 0)
(0.232934 0.00113838 0)
(0.625959 0.00506085 0)
(0.925163 0.0104749 0)
(1.08117 0.0140575 0)
(1.12455 0.0173596 0)
(1.12101 0.020905 0)
(1.10644 0.0252129 0)
(1.09245 0.0298158 0)
(1.07929 0.0343202 0)
(1.06696 0.0380698 0)
(1.05688 0.0391126 0)
(1.0515 0.0376289 0)
(1.05082 0.0345217 0)
(1.05533 0.0307398 0)
(1.06058 0.026807 0)
(1.05135 0.0218666 0)
(0.980344 0.0161353 0)
(0.786138 0.00979807 0)
(0.475853 0.004132 0)
(0.143437 0.000759111 0)
(0.246169 0.00148025 0)
(0.646269 0.00689689 0)
(0.940749 0.0138037 0)
(1.09013 0.0187342 0)
(1.13106 0.0224067 0)
(1.12774 0.026957 0)
(1.11289 0.0319252 0)
(1.0979 0.0375992 0)
(1.08302 0.0430119 0)
(1.06818 0.0471086 0)
(1.05518 0.0479122 0)
(1.04764 0.0460454 0)
(1.04601 0.0423168 0)
(1.04927 0.0371335 0)
(1.05259 0.0321597 0)
(1.0407 0.0257613 0)
(0.966875 0.0190451 0)
(0.771595 0.011865 0)
(0.460829 0.00497667 0)
(0.134806 0.000866507 0)
(0.261831 0.00198192 0)
(0.670106 0.00833365 0)
(0.959849 0.0173947 0)
(1.10244 0.0238142 0)
(1.14061 0.0291922 0)
(1.13655 0.0346608 0)
(1.12092 0.0411344 0)
(1.10456 0.0480631 0)
(1.08766 0.0542764 0)
(1.07037 0.058646 0)
(1.05525 0.0591603 0)
(1.04548 0.0562399 0)
(1.04073 0.0511495 0)
(1.04142 0.0450505 0)
(1.04236 0.038548 0)
(1.0263 0.030947 0)
(0.946633 0.0225489 0)
(0.746037 0.0139212 0)
(0.437471 0.00583218 0)
(0.12318 0.000999841 0)
(0.283667 0.00278637 0)
(0.702571 0.0120993 0)
(0.985664 0.0233739 0)
(1.11827 0.0321178 0)
(1.15154 0.0383966 0)
(1.14707 0.0457377 0)
(1.13048 0.0536488 0)
(1.11232 0.0615934 0)
(1.09275 0.0685623 0)
(1.07201 0.0727487 0)
(1.05293 0.0722731 0)
(1.03995 0.0677363 0)
(1.03391 0.0614663 0)
(1.03251 0.0537121 0)
(1.03023 0.0453923 0)
(1.01031 0.0360655 0)
(0.927347 0.0264218 0)
(0.725886 0.0167499 0)
(0.416688 0.00697863 0)
(0.111539 0.00107542 0)
(0.313831 0.00378173 0)
(0.745688 0.0149622 0)
(1.01847 0.0306622 0)
(1.13905 0.0420263 0)
(1.16707 0.0512786 0)
(1.16016 0.0610798 0)
(1.14145 0.0704571 0)
(1.12047 0.0794897 0)
(1.09755 0.0864792 0)
(1.0732 0.0896677 0)
(1.0511 0.0876082 0)
(1.03546 0.0815763 0)
(1.02528 0.0730412 0)
(1.02033 0.0637109 0)
(1.0151 0.0537666 0)
(0.990566 0.043228 0)
(0.900593 0.0317333 0)
(0.690426 0.0199091 0)
(0.382497 0.00795743 0)
(0.0954267 0.00120205 0)
(0.350087 0.0075735 0)
(0.799884 0.0245895 0)
(1.06049 0.0433271 0)
(1.1659 0.0585353 0)
(1.18575 0.069983 0)
(1.17542 0.0820818 0)
(1.1533 0.0930988 0)
(1.12859 0.102312 0)
(1.1015 0.108624 0)
(1.07259 0.110389 0)
(1.04598 0.106251 0)
(1.02646 0.0969176 0)
(1.01487 0.0862738 0)
(1.00763 0.0747909 0)
(0.998238 0.0628619 0)
(0.968754 0.0502273 0)
(0.873365 0.0371385 0)
(0.661266 0.0235194 0)
(0.354533 0.00951435 0)
(0.0809616 0.00112018 0)
(0.43255 0.0113107 0)
(0.881882 0.0350672 0)
(1.11647 0.0632847 0)
(1.19922 0.0828982 0)
(1.20969 0.0964992 6.80897e-34)
(1.19282 0.112159 -3.03888e-34)
(1.16563 0.122908 0)
(1.13619 0.131258 0)
(1.10428 0.135683 0)
(1.07071 0.134387 0)
(1.03997 0.126317 0)
(1.01727 0.114553 0)
(1.00127 0.10134 0)
(0.990044 0.0879446 0)
(0.977794 0.0744015 0)
(0.942949 0.0605529 0)
(0.83802 0.045009 0)
(0.611772 0.0282651 0)
(0.304417 0.00980509 0)
(0.0592155 0.000845888 0)
(0.501517 0.026302 5.14153e-20)
(0.976018 0.059143 -3.88236e-20)
(1.17639 0.0958109 0)
(1.23454 0.118509 2.98901e-20)
(1.23517 0.135925 -2.42182e-20)
(1.20989 0.151496 3.2062e-34)
(1.1771 0.160879 0)
(1.14216 0.167377 1.68294e-20)
(1.10462 0.169289 -5.51591e-20)
(1.0655 0.164992 1.12258e-20)
(1.03008 0.154124 0)
(1.00311 0.138624 -2.82965e-20)
(0.984727 0.122229 -3.37928e-20)
(0.970515 0.106265 5.90413e-20)
(0.951423 0.090485 -4.66327e-20)
(0.906519 0.0735966 0)
(0.786961 0.0549175 -1.69231e-20)
(0.54756 0.0334554 0)
(0.252147 0.012917 -9.28344e-20)
(0.0412784 0.00135136 1.09743e-19)
(0.533454 0.0544275 -6.78949e-21)
(1.03246 0.102217 1.19192e-19)
(1.22138 0.146685 -7.42239e-21)
(1.26636 0.166608 -7.57684e-20)
(1.25823 0.184484 -5.11325e-20)
(1.225 0.19812 8.30282e-20)
(1.18635 0.205536 0)
(1.14547 0.210108 0)
(1.10219 0.209468 8.79619e-20)
(1.05733 0.201763 0)
(1.0154 0.186611 1.02642e-19)
(0.981961 0.16748 3.03594e-20)
(0.956936 0.149789 3.34539e-22)
(0.936454 0.132832 -6.47014e-20)
(0.915175 0.1165 0)
(0.867455 0.0996143 0)
(0.744739 0.07534 -2.78448e-19)
(0.51211 0.0492232 6.97094e-19)
(0.237763 0.0196712 -4.13429e-19)
(0.037771 0.00398949 -4.88858e-19)
(0.538207 0.0774241 -7.26026e-20)
(1.06455 0.159264 2.73101e-20)
(1.25497 0.208176 1.43875e-20)
(1.29203 0.225911 1.32726e-19)
(1.27623 0.241413 1.38782e-20)
(1.23647 0.250966 -2.16936e-19)
(1.19221 0.255019 7.34522e-20)
(1.14554 0.256553 0)
(1.0965 0.252487 -1.86402e-19)
(1.04562 0.241462 1.64647e-19)
(0.998632 0.223508 -2.77134e-19)
(0.962794 0.204188 1.29833e-19)
(0.936249 0.185035 -8.40113e-20)
(0.914287 0.166351 1.89182e-19)
(0.886212 0.147852 0)
(0.833883 0.128528 -6.93952e-20)
(0.71509 0.102898 0)
(0.500375 0.0666403 3.86774e-19)
(0.241176 0.0326749 -9.1806e-19)
(0.0464762 0.00592729 5.75208e-19)
(0.52839 0.109513 2.17294e-19)
(1.07949 0.216749 -9.41504e-20)
(1.27464 0.273815 -1.97486e-20)
(1.30905 0.290115 0)
(1.28807 0.302885 -9.71613e-20)
(1.24356 0.307726 1.19469e-19)
(1.19461 0.307715 -7.85403e-20)
(1.14295 0.305404 0)
(1.08896 0.297339 1.32533e-19)
(1.03283 0.282422 -1.15771e-19)
(0.980721 0.260853 2.4036e-19)
(0.938052 0.237255 0)
(0.904229 0.215025 -1.78537e-19)
(0.875848 0.195762 1.0073e-19)
(0.851301 0.178967 2.54264e-19)
(0.805442 0.161249 -2.23674e-19)
(0.696733 0.132946 3.59726e-19)
(0.498281 0.0915473 -7.96767e-19)
(0.256148 0.0476189 5.03716e-19)
(0.0584521 0.0110352 -6.30596e-19)
(0.514334 0.133767 -8.49649e-20)
(1.08501 0.271771 6.12958e-20)
(1.28513 0.340562 -6.53222e-20)
(1.31816 0.355537 1.25182e-19)
(1.29345 0.365593 -1.15288e-19)
(1.24562 0.365896 3.81498e-20)
(1.19298 0.361904 3.64697e-21)
(1.13712 0.355647 -1.51737e-19)
(1.07845 0.343646 -1.39118e-19)
(1.01714 0.324956 -2.48681e-19)
(0.960581 0.300524 -5.16557e-19)
(0.916349 0.275036 -1.58698e-19)
(0.884311 0.253948 2.52619e-21)
(0.859758 0.235847 -3.43923e-19)
(0.828458 0.217227 -6.34099e-21)
(0.778652 0.194373 3.24698e-19)
(0.675655 0.162686 -9.84305e-20)
(0.494134 0.116423 -5.75009e-20)
(0.267732 0.0642098 0)
(0.0678005 0.0166287 1.33664e-18)
(0.495549 0.154495 0)
(1.07664 0.32136 -9.01619e-21)
(1.28675 0.403974 0)
(1.32062 0.419276 -1.23477e-20)
(1.29342 0.427565 1.13223e-19)
(1.24324 0.423888 -8.81771e-20)
(1.18776 0.416225 8.60093e-20)
(1.12856 0.406087 2.48746e-19)
(1.06629 0.390001 -7.72438e-20)
(1.00158 0.367185 1.2371e-19)
(0.941482 0.338452 2.77526e-19)
(0.89344 0.310509 3.45528e-19)
(0.855584 0.286443 -2.07322e-19)
(0.823015 0.264016 3.71333e-19)
(0.798292 0.244638 -2.93816e-19)
(0.758286 0.226422 0)
(0.66672 0.193153 -7.46539e-19)
(0.497584 0.142752 1.00486e-18)
(0.278092 0.0811251 7.51404e-20)
(0.074708 0.0221554 -1.40685e-18)
(0.48117 0.175283 -5.29486e-21)
(1.06851 0.370508 -6.19724e-21)
(1.28409 0.465412 1.20106e-19)
(1.31838 0.480988 -1.18739e-19)
(1.28903 0.487647 9.11594e-20)
(1.23707 0.480456 -8.6492e-20)
(1.17941 0.469547 1.71343e-19)
(1.11771 0.455769 -7.54479e-20)
(1.05251 0.435913 -3.11738e-19)
(0.98422 0.409645 4.29401e-22)
(0.920682 0.377999 -3.00291e-19)
(0.870862 0.347671 -3.69949e-19)
(0.834943 0.321261 2.27982e-19)
(0.81028 0.300798 -1.33227e-19)
(0.779727 0.28195 3.17902e-19)
(0.734951 0.25716 0)
(0.646617 0.2224 -4.61115e-19)
(0.490277 0.166898 6.8107e-19)
(0.282187 0.0965546 1.29477e-18)
(0.0786124 0.0272342 -1.52345e-18)
(0.466239 0.192784 1.0334e-21)
(1.05435 0.41474 -7.46851e-21)
(1.2769 0.522757 -7.52717e-20)
(1.31242 0.539507 1.23526e-19)
(1.2814 0.545256 1.12918e-20)
(1.22809 0.535072 -1.70343e-19)
(1.16881 0.521219 -9.83918e-20)
(1.10513 0.504119 -9.47415e-20)
(1.03748 0.480799 -1.74556e-19)
(0.96656 0.450506 2.82104e-19)
(0.901214 0.414262 3.04334e-19)
(0.849646 0.380441 5.87105e-19)
(0.81092 0.352905 0)
(0.77629 0.328945 5.75015e-21)
(0.75218 0.307487 -8.69566e-19)
(0.716197 0.287658 2.01817e-19)
(0.636199 0.250643 9.90978e-19)
(0.484347 0.190688 -2.91849e-19)
(0.278427 0.110625 6.10581e-19)
(0.0783875 0.0303426 -5.12335e-20)
(0.457309 0.211885 6.07089e-21)
(1.0435 0.458806 1.80338e-20)
(1.26809 0.578086 -4.09156e-20)
(1.30389 0.595732 1.52489e-19)
(1.27126 0.600262 -2.00242e-19)
(1.21702 0.587232 1.7025e-19)
(1.15644 0.570835 1.01849e-19)
(1.0911 0.550787 2.84458e-19)
(1.02118 0.524392 3.52634e-19)
(0.947183 0.490859 -3.22979e-19)
(0.878437 0.452556 0)
(0.826128 0.415519 -2.2049e-19)
(0.788186 0.384649 2.53143e-19)
(0.764166 0.361106 3.17788e-19)
(0.733871 0.339392 -1.83629e-19)
(0.692397 0.31222 -4.48718e-19)
(0.614178 0.274958 -1.34331e-19)
(0.470886 0.208488 -1.25521e-21)
(0.269659 0.120257 0)
(0.0752246 0.0325015 0)
(0.448822 0.22743 -4.48403e-20)
(1.0301 0.498585 0)
(1.25689 0.629202 -2.79999e-20)
(1.29334 0.648459 -1.30564e-21)
(1.25946 0.652247 2.22993e-19)
(1.20445 0.636842 -5.73447e-20)
(1.14279 0.618251 1.03077e-19)
(1.07604 0.595552 -1.92985e-19)
(1.00437 0.566382 2.66614e-19)
(0.929297 0.529855 -1.04069e-19)
(0.860355 0.48617 1.73096e-19)
(0.805706 0.445683 6.98144e-19)
(0.764932 0.414132 1.36013e-20)
(0.729677 0.38489 -3.31343e-19)
(0.70689 0.361277 6.12473e-19)
(0.674748 0.339208 4.48962e-21)
(0.601775 0.295719 1.43718e-19)
(0.458902 0.225753 -6.87884e-19)
(0.259536 0.127082 7.0023e-19)
(0.070572 0.0340813 -8.33821e-19)
(0.442656 0.246424 3.36835e-23)
(1.01911 0.53813 0)
(1.24526 0.678547 0)
(1.2814 0.699042 -1.32794e-20)
(1.24636 0.701597 -6.89719e-20)
(1.19087 0.683754 8.13086e-20)
(1.12838 0.66321 -1.95198e-19)
(1.06059 0.638263 0)
(0.987683 0.606667 -3.9267e-19)
(0.910025 0.566829 4.6614e-19)
(0.836083 0.520701 4.90545e-19)
(0.779288 0.478445 -2.56161e-19)
(0.740722 0.440854 -3.08433e-19)
(0.715968 0.414288 7.22575e-19)
(0.687793 0.389918 -2.17422e-19)
(0.649391 0.357259 -2.59946e-19)
(0.576842 0.315106 -1.56215e-19)
(0.440557 0.236873 -7.41576e-19)
(0.246844 0.131765 1.06513e-19)
(0.0649871 0.0344098 8.99899e-19)
(0.438915 0.265084 -2.56814e-20)
(1.00742 0.574093 -2.97906e-20)
(1.23238 0.72382 2.34886e-20)
(1.2686 0.746169 -1.7161e-23)
(1.23275 0.747994 -6.13674e-20)
(1.17677 0.728094 1.37681e-19)
(1.11349 0.705806 0)
(1.04467 0.678848 1.15311e-19)
(0.969766 0.64495 -9.09248e-20)
(0.889378 0.602986 7.75004e-19)
(0.814744 0.55491 -1.12879e-19)
(0.757929 0.50679 1.26875e-19)
(0.71626 0.468847 0)
(0.680954 0.43451 -3.90908e-19)
(0.659146 0.40518 4.72957e-19)
(0.630023 0.379832 0)
(0.5613 0.328636 -3.3806e-19)
(0.42295 0.247712 9.9248e-19)
(0.233238 0.134354 1.16921e-19)
(0.0588988 0.0338624 -1.10819e-18)
(0.437023 0.281952 -6.96427e-20)
(0.997984 0.609606 8.9953e-20)
(1.21977 0.76739 0)
(1.25536 0.791124 -1.02042e-20)
(1.21872 0.791905 0)
(1.16243 0.769979 -1.71764e-19)
(1.09855 0.746105 0)
(1.02877 0.717337 0)
(0.952898 0.6821 -1.18605e-19)
(0.871972 0.638276 -7.36335e-19)
(0.794837 0.585675 -9.04872e-19)
(0.733189 0.535312 1.47746e-19)
(0.689432 0.492377 5.31718e-19)
(0.666796 0.458612 4.29986e-19)
(0.639437 0.429782 -1.51769e-18)
(0.603086 0.391863 -6.11766e-19)
(0.533668 0.343 3.57547e-19)
(0.400974 0.2528 0)
(0.218334 0.135006 1.00832e-18)
(0.0525789 0.0324148 -1.19492e-18)
(0.43562 0.297724 8.7115e-20)
(0.987775 0.641741 -1.0777e-19)
(1.20678 0.807161 0)
(1.24199 0.832809 -1.04103e-20)
(1.20477 0.833091 9.97341e-21)
(1.14817 0.809517 0)
(1.08357 0.784168 5.92672e-20)
(1.01304 0.753849 7.85844e-20)
(0.935662 0.716613 -2.24128e-19)
(0.851183 0.670154 9.7869e-20)
(0.76951 0.615133 0)
(0.707675 0.562568 6.11018e-19)
(0.667789 0.516318 4.25509e-21)
(0.629616 0.476343 2.32011e-19)
(0.60909 0.440156 2.756e-19)
(0.581877 0.410588 0)
(0.515592 0.349523 -5.89159e-19)
(0.381154 0.257731 1.15621e-18)
(0.202828 0.133745 -1.22552e-18)
(0.0464939 0.0303335 2.5765e-18)
(0.434585 0.312747 0)
(0.979303 0.673669 0)
(1.19445 0.845297 -4.97525e-20)
(1.22873 0.872344 0)
(1.19087 0.871884 0)
(1.13403 0.846809 -1.47202e-19)
(1.06907 0.820212 6.06706e-20)
(0.997725 0.788467 1.72322e-20)
(0.918828 0.750181 -5.15741e-20)
(0.832683 0.703613 0)
(0.750882 0.64837 -1.36829e-19)
(0.685789 0.591095 -4.9836e-19)
(0.635802 0.540449 -5.99285e-19)
(0.613305 0.497341 -2.40711e-19)
(0.587699 0.4621 2.99501e-19)
(0.553343 0.414903 -7.0709e-19)
(0.486103 0.359159 1.26867e-18)
(0.356546 0.257021 5.27464e-21)
(0.187049 0.130603 -1.17842e-18)
(0.0407508 0.0278737 -1.7419e-19)
(0.433458 0.327437 0)
(0.970337 0.702807 -9.00999e-20)
(1.18208 0.880194 6.3747e-20)
(1.2156 0.908941 0)
(1.17727 0.908158 0)
(1.1203 0.88189 2.97458e-19)
(1.05481 0.854171 0)
(0.982663 0.821163 0)
(0.90292 0.781677 -4.89159e-19)
(0.815694 0.732695 1.33571e-19)
(0.729678 0.673833 -1.21177e-18)
(0.659592 0.615119 0)
(0.61458 0.56229 -6.47582e-19)
(0.573599 0.513559 1.12831e-20)
(0.553163 0.46631 -9.60042e-19)
(0.529542 0.428456 3.80988e-19)
(0.467087 0.356235 3.03902e-21)
(0.338581 0.255232 -1.3414e-18)
(0.17326 0.126232 6.3578e-19)
(0.0360549 0.0256531 1.86475e-19)
(0.432468 0.341665 0)
(0.962793 0.73166 -1.32692e-19)
(1.1704 0.913685 6.73514e-20)
(1.20283 0.943548 6.96445e-20)
(1.16397 0.942135 -2.0838e-20)
(1.10684 0.914804 3.00418e-20)
(1.04116 0.886259 -3.87487e-20)
(0.968677 0.85226 4.77156e-19)
(0.887759 0.812098 5.23263e-19)
(0.797608 0.763693 1.01763e-18)
(0.707783 0.706288 1.00692e-18)
(0.636263 0.644371 1.76307e-19)
(0.581471 0.585169 9.32179e-19)
(0.55445 0.53258 5.75163e-19)
(0.52906 0.48572 6.89515e-19)
(0.497595 0.423342 -4.1846e-19)
(0.43564 0.357643 -4.91759e-19)
(0.314471 0.245436 5.76483e-19)
(0.159361 0.118741 -3.40714e-19)
(0.0340656 0.0268907 6.04303e-19)
(0.431382 0.355445 1.91831e-19)
(0.954868 0.757881 2.06908e-19)
(1.15876 0.944378 4.03206e-20)
(1.19031 0.975586 1.62854e-20)
(1.15106 0.973867 3.52523e-20)
(1.09398 0.945683 -8.31034e-20)
(1.02811 0.916361 3.76427e-20)
(0.955152 0.88157 -2.13726e-20)
(0.873289 0.840516 -6.06e-19)
(0.782421 0.790474 -1.10371e-18)
(0.692249 0.72927 6.98235e-20)
(0.615161 0.667603 0)
(0.558834 0.609803 0)
(0.5112 0.549625 -2.99175e-19)
(0.487422 0.485128 -1.12478e-18)
(0.467085 0.431146 9.02881e-19)
(0.4171 0.334616 5.40424e-19)
(0.312868 0.225343 0)
(0.166716 0.0971293 1.08695e-18)
(0.0281383 0.00494414 -6.48337e-19)
(0.430447 0.368513 -1.01525e-19)
(0.948038 0.783652 9.0157e-20)
(1.14779 0.973831 -9.98514e-20)
(1.17825 1.00583 -7.32096e-20)
(1.13863 1.00346 -3.25563e-21)
(1.08154 0.974476 -2.64783e-20)
(1.01563 0.94465 0)
(0.942371 0.90919 -5.98076e-19)
(0.859721 0.867841 7.5801e-20)
(0.766218 0.818432 0)
(0.670108 0.761219 0)
(0.587833 0.697519 1.11583e-19)
(0.52489 0.631627 1.50142e-19)
(0.489207 0.567784 -3.22036e-19)
(0.457885 0.506415 8.08148e-19)
(0.425474 0.416083 -9.83371e-19)
(0.374784 0.321174 -1.15655e-18)
(0.299454 0.200639 1.0214e-18)
(0.203174 0.121724 -3.89133e-19)
(0.117478 0.0874934 2.26727e-19)
(0.429259 0.380825 1.30595e-19)
(0.940786 0.806887 0)
(1.1369 1.00075 0)
(1.16655 1.03383 -1.89179e-20)
(1.12667 1.03112 1.53141e-20)
(1.0697 1.00146 -2.09375e-20)
(1.00372 0.971078 1.62124e-19)
(0.930272 0.935161 6.12144e-19)
(0.846991 0.893515 1.09612e-18)
(0.753109 0.84337 -8.22832e-20)
(0.657099 0.78261 1.69505e-19)
(0.572172 0.720179 -9.94064e-19)
(0.504683 0.658993 -9.87417e-19)
(0.441975 0.590349 -1.72116e-19)
(0.403289 0.504609 0)
(0.376013 0.425963 -1.15077e-20)
(0.337858 0.26448 6.31489e-19)
(0.293067 0.101315 -1.07307e-18)
(0.252497 -0.0462967 8.15356e-19)
(0.0797134 -0.0924277 6.78431e-19)
(0.42817 0.392551 -2.89736e-19)
(0.934386 0.829738 -1.31504e-19)
(1.1266 1.0267 6.65119e-21)
(1.15524 1.06043 4.76896e-20)
(1.11507 1.05715 0)
(1.05816 1.02688 -9.90176e-20)
(0.992236 0.996288 -2.30948e-19)
(0.91862 0.960135 -1.18912e-21)
(0.834659 0.918332 -5.74146e-19)
(0.738154 0.869079 -8.05791e-20)
(0.636206 0.812576 7.48424e-20)
(0.544828 0.751825 8.72921e-19)
(0.468409 0.683848 9.64304e-19)
(0.418104 0.61171 1.66802e-19)
(0.369777 0.53875 8.55457e-19)
(0.306899 0.410746 0)
(0.202109 0.256626 0)
(0.0325039 0.257441 7.47474e-19)
(-0.0711544 0.628924 -3.30634e-20)
(0.00220116 1.51406 -9.10287e-19)
(0.426711 0.403679 1.60525e-19)
(0.927616 0.850397 3.63096e-19)
(1.11635 1.05058 -4.87061e-19)
(1.14423 1.08541 2.34291e-19)
(1.10382 1.08203 -1.84759e-21)
(1.04699 1.05141 -5.68956e-20)
(0.980993 1.02062 0)
(0.907166 0.98443 -5.10523e-19)
(0.8225 0.943173 0)
(0.72542 0.893911 1.13624e-18)
(0.624216 0.835989 -9.01905e-20)
(0.531945 0.775604 1.01127e-19)
(0.451664 0.717748 1.0938e-18)
(0.365465 0.651769 -3.6064e-19)
(0.279708 0.551335 -4.37264e-19)
(0.208937 0.472311 0)
(0.104206 0.563658 0)
(0.0339861 1.27274 0)
(0.0766628 2.43778 -4.25265e-19)
(0.106488 2.89832 -2.60201e-19)
(0.425308 0.414299 0)
(0.921641 0.870725 0)
(1.10669 1.0737 1.78507e-19)
(1.13363 1.10921 -1.89085e-19)
(1.09294 1.10551 7.46437e-20)
(1.03617 1.07465 6.10294e-20)
(0.970191 1.04402 2.92828e-20)
(0.896183 1.00809 -2.27995e-20)
(0.811064 0.967179 8.02015e-20)
(0.712211 0.919696 -1.30385e-18)
(0.605724 0.866699 1.63605e-19)
(0.504334 0.81177 8.63114e-19)
(0.412148 0.751754 -1.09024e-18)
(0.34166 0.67726 -1.18777e-18)
(0.273064 0.616077 4.01336e-19)
(0.204609 0.73719 0)
(0.13904 1.50808 5.64861e-19)
(0.136946 2.67584 6.3469e-19)
(0.144018 3.08187 -7.10237e-19)
(0.134661 3.21937 7.75711e-19)
(0.42355 0.424235 0)
(0.915306 0.888865 3.27542e-19)
(1.09713 1.0948 -4.46133e-20)
(1.12341 1.13148 2.74152e-19)
(1.08252 1.12794 -7.83503e-20)
(1.02582 1.09703 0)
(0.959774 1.06651 0)
(0.885658 1.0309 0)
(0.800045 0.991142 4.54903e-19)
(0.700813 0.944943 6.04092e-20)
(0.59431 0.890982 0)
(0.494577 0.836668 -8.58996e-19)
(0.406942 0.78851 0)
(0.295276 0.733263 8.5079e-19)
(0.213442 0.809616 -5.68155e-19)
(0.168779 1.44826 -4.59299e-19)
(0.172673 2.66556 -1.09409e-18)
(0.192541 3.12596 -5.77783e-19)
(0.182904 3.2705 -7.93276e-19)
(0.167815 3.31133 6.38852e-19)
(0.421936 0.433516 -1.15364e-19)
(0.909741 0.906786 1.53169e-20)
(1.08815 1.11533 -5.0104e-20)
(1.11359 1.15271 -2.10277e-19)
(1.07242 1.14907 0)
(1.01582 1.11822 0)
(0.949807 1.08816 0)
(0.87561 1.05321 3.52523e-20)
(0.789831 1.01432 -5.74678e-19)
(0.68919 0.969847 0)
(0.578891 0.922349 0)
(0.472748 0.877144 0)
(0.363586 0.829941 0)
(0.307898 0.820566 6.15425e-19)
(0.283439 1.18205 1.51755e-18)
(0.268488 2.34724 4.5349e-19)
(0.279518 3.08147 9.19038e-19)
(0.272464 3.2893 -7.01539e-19)
(0.222067 3.35688 2.62085e-19)
(0.188178 3.36945 0)
(0.420018 0.442307 1.19308e-19)
(0.90358 0.923004 -7.32073e-19)
(1.07904 1.13448 -1.943e-19)
(1.10396 1.17312 -4.19811e-20)
(1.06263 1.16984 1.82401e-20)
(1.00614 1.13918 -4.27979e-20)
(0.940146 1.10947 -5.66134e-21)
(0.866036 1.07511 -4.01521e-19)
(0.779961 1.03763 0)
(0.679191 0.995749 -7.53505e-20)
(0.569442 0.948464 6.85454e-20)
(0.464433 0.901613 0)
(0.380672 0.872411 0)
(0.323982 0.996437 -7.69274e-19)
(0.289958 1.83971 9.06461e-20)
(0.286495 2.93243 -3.36561e-19)
(0.305508 3.294 6.97124e-19)
(0.278526 3.39564 5.07446e-19)
(0.210982 3.42107 -6.82183e-19)
(0.185144 3.42978 3.40225e-19)
(0.417947 0.451194 2.36661e-19)
(0.89764 0.94069 7.16521e-19)
(1.06971 1.15488 2.32439e-19)
(1.09388 1.19414 0)
(1.05235 1.19079 0)
(0.996076 1.16023 3.41795e-20)
(0.93025 1.13107 8.61178e-20)
(0.856239 1.09744 3.5859e-19)
(0.770344 1.06117 2.28387e-20)
(0.669097 1.02086 9.67513e-19)
(0.557388 0.979763 -1.12969e-18)
(0.447077 0.944081 0)
(0.365667 0.94952 0)
(0.347281 1.3444 -5.20923e-19)
(0.353309 2.45396 -6.27263e-19)
(0.394755 3.1994 0)
(0.420198 3.38064 -6.83186e-19)
(0.350308 3.44521 6.0693e-20)
(0.276619 3.48943 2.99469e-19)
(0.252388 3.51538 -9.23503e-20)
(0.415141 0.460505 -4.52458e-19)
(0.890225 0.957861 -3.44773e-19)
(1.05926 1.17534 0)
(1.08309 1.21588 0)
(1.04157 1.21286 0)
(0.985551 1.18236 0)
(0.919994 1.15338 -9.94868e-20)
(0.846426 1.12032 3.18577e-19)
(0.760694 1.08523 0)
(0.659769 1.04807 -8.81431e-19)
(0.549305 1.00881 2.02554e-18)
(0.447378 0.975503 8.23581e-20)
(0.393329 1.0609 1.0774e-19)
(0.398427 1.7301 8.48668e-19)
(0.420036 2.88425 -4.47997e-19)
(0.457461 3.32784 0)
(0.439659 3.45733 1.86036e-19)
(0.350982 3.54573 9.72488e-20)
(0.268845 3.61357 1.71933e-19)
(0.193066 3.59343 -3.06938e-20)
(0.41214 0.46997 2.16382e-19)
(0.882832 0.977516 -3.55008e-19)
(1.04819 1.19791 0)
(1.07133 1.23875 -6.10728e-20)
(1.02973 1.23541 2.06984e-19)
(0.97415 1.20477 0)
(0.909016 1.17619 0)
(0.835886 1.14359 -5.54184e-19)
(0.750791 1.10974 -5.69385e-20)
(0.650486 1.07385 8.62614e-19)
(0.537762 1.03916 -9.63541e-19)
(0.447904 1.03129 5.57291e-19)
(0.413293 1.24082 0)
(0.444501 2.15614 -4.48654e-19)
(0.488477 3.14144 2.95461e-19)
(0.548022 3.43537 1.74306e-19)
(0.541505 3.53651 0)
(0.473996 3.62676 -5.3946e-20)
(0.399266 3.67113 -4.5857e-19)