#           x             T        mag(U)             p
       -4.995       348.432   5.25143e-13        100000
       -4.985       348.432   6.12667e-13        100000
       -4.975       348.432    1.1451e-12        100000
       -4.965       348.432   1.54625e-12        100000
       -4.955       348.432     1.838e-12        100000
       -4.945       348.432   1.76507e-12        100000
       -4.935       348.432   1.96928e-12        100000
       -4.925       348.432    3.2092e-13        100000
       -4.915       348.432   1.82342e-13        100000
       -4.905       348.432   5.98079e-13        100000
       -4.895       348.432   2.19539e-12        100000
       -4.885       348.432   1.69942e-12        100000
       -4.875       348.432      9.19e-13        100000
       -4.865       348.432   3.20921e-13        100000
       -4.855       348.432   4.15738e-13        100000
       -4.845       348.432   1.38579e-13        100000
       -4.835       348.432   2.91746e-14        100000
       -4.825       348.432   7.29365e-15        100000
       -4.815       348.432   8.75236e-14        100000
       -4.805       348.432    2.9904e-13        100000
       -4.795       348.432   1.53167e-13        100000
       -4.785       348.432   2.69865e-13        100000
       -4.775       348.432   5.32437e-13        100000
       -4.765       348.432   7.22071e-13        100000
       -4.755       348.432   3.86564e-13        100000
       -4.745       348.432   4.37619e-13        100000
       -4.735       348.432   4.37619e-13        100000
       -4.725       348.432   2.99039e-13        100000
       -4.715       348.432   6.49135e-13        100000
       -4.705       348.432   7.95008e-13        100000
       -4.695       348.432   9.26295e-13        100000
       -4.685       348.432    5.3973e-13        100000
       -4.675       348.432   7.43953e-13        100000
       -4.665       348.432   3.86564e-13        100000
       -4.655       348.432   7.29364e-14        100000
       -4.645       348.432   2.62572e-13        100000
       -4.635       348.432   1.16698e-13        100000
       -4.625       348.432   4.66793e-13        100000
       -4.615       348.432   8.53357e-13        100000
       -4.605       348.432   2.33397e-13        100000
       -4.595       348.432   1.67754e-13        100000
       -4.585       348.432   4.37619e-14        100000
       -4.575       348.432   1.41496e-12        100000
       -4.565       348.432   1.54626e-12        100000
       -4.555       348.432    6.7831e-13        100000
       -4.545       348.432   8.89824e-13        100000
       -4.535       348.432   1.56814e-12        100000
       -4.525       348.432   1.21804e-12        100000
       -4.515       348.432   4.95968e-13        100000
       -4.505       348.432   4.15738e-13        100000
       -4.495       348.432   4.95969e-13        100000
       -4.485       348.432   6.63722e-13        100000
       -4.475       348.432   1.38579e-13        100000
       -4.465       348.432   6.05373e-13        100000
       -4.455       348.432   5.32437e-13        100000
       -4.445       348.432   3.71976e-13        100000
       -4.435       348.432   9.62762e-13        100000
       -4.425       348.432   8.16889e-13        100000
       -4.415       348.432   7.73127e-13        100000
       -4.405       348.432   1.14511e-12        100000
       -4.395       348.432   9.48176e-14        100000
       -4.385       348.432   6.49135e-13        100000
       -4.375       348.432   1.36391e-12        100000
       -4.365       348.432   6.71016e-13        100000
       -4.355       348.432   2.55277e-13        100000
       -4.345       348.432   6.19961e-13        100000
       -4.335       348.432   6.92897e-13        100000
       -4.325       348.432   4.44912e-13        100000
       -4.315       348.432   4.01151e-13        100000
       -4.305       348.432   1.40768e-12        100000
       -4.295       348.432   1.81612e-12        100000
       -4.285       348.432   1.80153e-12        100000
       -4.275       348.432   3.26756e-12        100000
       -4.265       348.432   2.23185e-12        100000
       -4.255       348.432   2.44337e-12        100000
       -4.245       348.432    2.0714e-12        100000
       -4.235       348.432   2.03493e-12        100000
       -4.225       348.432   2.47255e-12        100000
       -4.215       348.432   1.91823e-12        100000
       -4.205       348.432   3.86564e-13        100000
       -4.195       348.432   2.20268e-12        100000
       -4.185       348.432   4.53665e-12        100000
       -4.175       348.432   4.64606e-12        100000
       -4.165       348.432   4.95239e-12        100000
       -4.155       348.432    2.5309e-12        100000
       -4.145       348.432   1.01382e-12        100000
       -4.135       348.432   1.82341e-12        100000
       -4.125       348.432   3.01957e-12        100000
       -4.115       348.432   4.17926e-12        100000
       -4.105       348.432    4.1355e-12        100000
       -4.095       348.432   4.85757e-12        100000
       -4.085       348.432   4.12821e-12        100000
       -4.075       348.432   2.31209e-12        100000
       -4.065       348.432   1.85988e-12        100000
       -4.055       348.432   3.13627e-12        100000
       -4.045       348.432   4.50747e-12        100000
       -4.035       348.432   4.33972e-12        100000
       -4.025       348.432   2.93934e-12        100000
       -4.015       348.432   1.91823e-12        100000
       -4.005       348.432   1.88176e-12        100000
       -3.995       348.432   3.60306e-12        100000
       -3.985       348.432   3.70518e-12        100000
       -3.975       348.432   3.60307e-12        100000
       -3.965       348.432   2.39961e-12        100000
       -3.955       348.432   1.02111e-12        100000
       -3.945       348.432   9.84643e-13        100000
       -3.935       348.432   2.35585e-12        100000
       -3.925       348.432   3.51554e-12        100000
       -3.915       348.432   3.71976e-12        100000
       -3.905       348.432   2.72054e-12        100000
       -3.895       348.432   1.42956e-12        100000
       -3.885       348.432   9.48173e-14        100000
       -3.875       348.432   7.65834e-13        100000
       -3.865       348.432   8.97118e-13        100000
       -3.855       348.432   7.07484e-13        100000
       -3.845       348.432   8.97119e-13        100000
       -3.835       348.432   1.67754e-13        100000
       -3.825       348.432   1.82341e-13        100000
       -3.815       348.432    2.4069e-13        100000
       -3.805       348.432   4.15738e-13        100000
       -3.795       348.432   1.41497e-12        100000
       -3.785       348.432   3.93857e-13        100000
       -3.775       348.432   2.69865e-13        100000
       -3.765       348.432   1.09405e-13        100000
       -3.755       348.432   1.75048e-13        100000
       -3.745       348.432   1.16698e-13        100000
       -3.735       348.432   1.23992e-13        100000
       -3.725       348.432   3.64683e-14        100000
       -3.715       348.432   2.69865e-13        100000
       -3.705       348.432   1.09405e-13        100000
       -3.695       348.432   1.38579e-13        100000
       -3.685       348.432   1.16698e-13        100000
       -3.675       348.432   1.02111e-13        100000
       -3.665       348.432   2.91746e-14        100000
       -3.655       348.432    1.6046e-13        100000
       -3.645       348.432   2.33397e-13        100000
       -3.635       348.432   2.77159e-13        100000
       -3.625       348.432   2.55277e-13        100000
       -3.615       348.432   2.84452e-13        100000
       -3.605       348.432   8.75237e-14        100000
       -3.595       348.432   1.33474e-12        100000
       -3.585       348.432   1.80153e-12        100000
       -3.575       348.432   2.99039e-13        100000
       -3.565       348.432   5.10555e-13        100000
       -3.555       348.432   1.23992e-12        100000
       -3.545       348.432   1.89635e-13        100000
       -3.535       348.432   1.82341e-13        100000
       -3.525       348.432   1.09405e-13        100000
       -3.515       348.432   1.63378e-12        100000
       -3.505       348.432   1.38579e-12        100000
       -3.495       348.432   2.77159e-13        100000
       -3.485       348.432   7.43952e-13        100000
       -3.475       348.432   2.53819e-12        100000
       -3.465       348.432   1.09405e-12        100000
       -3.455       348.432   1.89634e-13        100000
       -3.445       348.432   5.03262e-13        100000
       -3.435       348.432   5.25143e-13        100000
       -3.425       348.432   3.28214e-13        100000
       -3.415       348.432   1.54625e-12        100000
       -3.405       348.432   3.13627e-13        100000
       -3.395       348.432   1.23992e-12        100000
       -3.385       348.432   1.17428e-12        100000
       -3.375       348.432   8.02302e-13        100000
       -3.365       348.432   1.82341e-13        100000
       -3.355       348.432   2.84452e-13        100000
       -3.345       348.432   1.91823e-12        100000
       -3.335       348.432   2.10786e-12        100000
       -3.325       348.432   9.40882e-13        100000
       -3.315       348.432   6.56429e-13        100000
       -3.305       348.432   1.40038e-12        100000
       -3.295       348.432   3.57389e-13        100000
       -3.285       348.432   4.37619e-13        100000
       -3.275       348.432   4.37619e-14        100000
       -3.265       348.432   5.61612e-13        100000
       -3.255       348.432   1.80154e-12        100000
       -3.245       348.432   1.69213e-12        100000
       -3.235       348.432   1.82341e-13        100000
       -3.225       348.432   8.67943e-13        100000
       -3.215       348.432   2.33397e-12        100000
       -3.205       348.432   2.10786e-12        100000
       -3.195       348.432   8.24183e-13        100000
       -3.185       348.432    3.2092e-13        100000
       -3.175       348.432   5.39731e-13        100000
       -3.165       348.432   1.61189e-12        100000
       -3.155       348.432     4.595e-13        100000
       -3.145       348.432    1.6046e-13        100000
       -3.135       348.432   4.52207e-13        100000
       -3.125       348.432   1.56084e-12        100000
       -3.115       348.432    5.3973e-13        100000
       -3.105       348.432   7.22072e-13        100000
       -3.095       348.432   1.75048e-13        100000
       -3.085       348.432   9.48177e-14        100000
       -3.075       348.432   1.45873e-13        100000
       -3.065       348.432   1.05028e-12        100000
       -3.055       348.432   2.29021e-12        100000
       -3.045       348.432    3.2165e-12        100000
       -3.035       348.432   1.17428e-12        100000
       -3.025       348.432   6.56428e-14        100000
       -3.015       348.432    3.7927e-13        100000
       -3.005       348.432   2.84453e-13        100000
       -2.995       348.432   1.96928e-13        100000
       -2.985       348.432   4.66794e-13        100000
       -2.975       348.432   3.50095e-13        100000
       -2.965       348.432   2.33397e-13        100000
       -2.955       348.432   2.62571e-13        100000
       -2.945       348.432   6.41841e-13        100000
       -2.935       348.432   1.13052e-12        100000
       -2.925       348.432   1.33473e-12        100000
       -2.915       348.432   4.81381e-13        100000
       -2.905       348.432   7.87714e-13        100000
       -2.895       348.432   8.09595e-13        100000
       -2.885       348.432   9.33586e-13        100000
       -2.875       348.432   1.29097e-12        100000
       -2.865       348.432   7.36658e-13        100000
       -2.855       348.432   3.42801e-13        100000
       -2.845       348.432   2.69865e-13        100000
       -2.835       348.432   5.10556e-14        100000
       -2.825       348.432   3.35508e-13        100000
       -2.815       348.432   9.48174e-14        100000
       -2.805       348.432   3.50095e-13        100000
       -2.795       348.432   5.10556e-13        100000
       -2.785       348.432   8.53357e-13        100000
       -2.775       348.432   4.52206e-13        100000
       -2.765       348.432    2.1881e-13        100000
       -2.755       348.432   9.33589e-13        100000
       -2.745       348.432   2.38502e-12        100000
       -2.735       348.432   3.09251e-12        100000
       -2.725       348.432    2.2975e-12        100000
       -2.715       348.432   8.60649e-13        100000
       -2.705       348.432   4.37619e-13        100000
       -2.695       348.432   4.37619e-13        100000
       -2.685       348.432   1.09405e-13        100000
       -2.675       348.432   8.24183e-13        100000
       -2.665       348.432   4.74088e-13        100000
       -2.655       348.432   7.80421e-13        100000
       -2.645       348.432    9.7735e-13        100000
       -2.635       348.432   1.61189e-12        100000
       -2.625       348.432   2.24644e-12        100000
       -2.615       348.432   2.00576e-12        100000
       -2.605       348.432   8.46064e-13        100000
       -2.595       348.432    1.6046e-13        100000
       -2.585       348.432   1.09405e-12        100000
       -2.575       348.432   2.26103e-13        100000
       -2.565       348.432   1.56084e-12        100000
       -2.555       348.432   2.24645e-12        100000
       -2.545       348.432   7.22072e-13        100000
       -2.535       348.432   1.97658e-12        100000
       -2.525       348.432   1.62649e-12        100000
       -2.515       348.432   2.11516e-12        100000
       -2.505       348.432   2.46525e-12        100000
       -2.495       348.432   2.62571e-12        100000
       -2.485       348.432   2.61842e-12        100000
       -2.475       348.432   1.84529e-12        100000
       -2.465       348.432   1.45873e-13        100000
       -2.455       348.432   1.00653e-12        100000
       -2.445       348.432   9.40881e-13        100000
       -2.435       348.432   1.50979e-12        100000
       -2.425       348.432   1.15969e-12        100000
       -2.415       348.432   5.76199e-13        100000
       -2.405       348.432   8.82531e-13        100000
       -2.395       348.432   1.06487e-12        100000
       -2.385       348.432   5.76199e-13        100000
       -2.375       348.432   5.32436e-13        100000
       -2.365       348.432   7.14777e-13        100000
       -2.355       348.432   8.75238e-14        100000
       -2.345       348.432   8.16889e-13        100000
       -2.335       348.432   1.84529e-12        100000
       -2.325       348.432   1.46602e-12        100000
       -2.315       348.432   1.02111e-13        100000
       -2.305       348.432   2.26103e-13        100000
       -2.295       348.432    1.9547e-12        100000
       -2.285       348.432     2.757e-12        100000
       -2.275       348.432   2.12974e-12        100000
       -2.265       348.432   9.91937e-13        100000
       -2.255       348.432   1.31286e-13        100000
       -2.245       348.432   1.12322e-12        100000
       -2.235       348.432   1.12322e-12        100000
       -2.225       348.432   2.20268e-12        100000
       -2.215       348.432    2.0641e-12        100000
       -2.205       348.432    1.7286e-12        100000
       -2.195       348.432   1.54625e-12        100000
       -2.185       348.432   1.21804e-12        100000
       -2.175       348.432   6.41841e-13        100000
       -2.165       348.432   1.67025e-12        100000
       -2.155       348.432   1.53167e-13        100000
       -2.145       348.432   5.10555e-13        100000
       -2.135       348.432   8.24183e-13        100000
       -2.125       348.432   2.11516e-13        100000
       -2.115       348.432   1.40038e-12        100000
       -2.105       348.432   1.70671e-12        100000
       -2.095       348.432   1.48062e-12        100000
       -2.085       348.432   1.47332e-12        100000
       -2.075       348.432   7.80421e-13        100000
       -2.065       348.432   5.10555e-14        100000
       -2.055       348.432   2.11516e-13        100000
       -2.045       348.432   8.31476e-13        100000
       -2.035       348.432   1.67754e-12        100000
       -2.025       348.432   7.95007e-13        100000
       -2.015       348.432   6.49135e-13        100000
       -2.005       348.432   2.04222e-13        100000
       -1.995       348.432   1.99846e-12        100000
       -1.985       348.432   2.63301e-12        100000
       -1.975       348.432   2.31208e-12        100000
       -1.965       348.432   2.58924e-12        100000
       -1.955       348.432   1.19615e-12        100000
       -1.945       348.432   5.83492e-13        100000
       -1.935       348.432   5.61611e-13        100000
       -1.925       348.432   1.31286e-12        100000
       -1.915       348.432   2.31938e-12        100000
       -1.905       348.432    2.5236e-12        100000
       -1.895       348.432   2.17351e-12        100000
       -1.885       348.432   8.75236e-13        100000
       -1.875       348.432   5.10556e-13        100000
       -1.865       348.432   2.40691e-13        100000
       -1.855       348.432   7.95008e-13        100000
       -1.845       348.432   1.16698e-13        100000
       -1.835       348.432   1.17428e-12        100000
       -1.825       348.432   1.13781e-12        100000
       -1.815       348.432   7.36659e-13        100000
       -1.805       348.432   6.34548e-13        100000
       -1.795       348.432   6.49135e-13        100000
       -1.785       348.432    1.3785e-12        100000
       -1.775       348.432   4.52206e-13        100000
       -1.765       348.432   1.28368e-12        100000
       -1.755       348.432   7.07484e-13        100000
       -1.745       348.432   2.26103e-13        100000
       -1.735       348.432   1.31286e-13        100000
       -1.725       348.432   6.85603e-13        100000
       -1.715       348.432   4.15738e-13        100000
       -1.705       348.432   1.63377e-12        100000
       -1.695       348.432   5.90785e-13        100000
       -1.685       348.432   1.53166e-13        100000
       -1.675       348.432   4.01151e-13        100000
       -1.665       348.432   1.44414e-12        100000
       -1.655       348.432   1.42226e-12        100000
       -1.645       348.432    1.3858e-13        100000
       -1.635       348.432   4.37619e-14        100000
       -1.625       348.432   1.17427e-12        100000
       -1.615       348.432   1.20345e-12        100000
       -1.605       348.432   6.85603e-13        100000
       -1.595       348.432   1.45873e-12        100000
       -1.585       348.432   1.05758e-12        100000
       -1.575       348.432   1.53896e-12        100000
       -1.565       348.432   1.50979e-12        100000
       -1.555       348.432   1.55354e-12        100000
       -1.545       348.432    1.1451e-12        100000
       -1.535       348.432   7.80421e-13        100000
       -1.525       348.432   1.89634e-12        100000
       -1.515       348.432    1.9547e-12        100000
       -1.505       348.432   1.67754e-13        100000
       -1.495       348.432   1.00653e-12        100000
       -1.485       348.432   1.20345e-12        100000
       -1.475       348.432   3.35508e-13        100000
       -1.465       348.432   9.99228e-13        100000
       -1.455       348.432   1.51708e-12        100000
       -1.445       348.432   1.39309e-12        100000
       -1.435       348.432   6.92897e-13        100000
       -1.425       348.432   1.01382e-12        100000
       -1.415       348.432   8.75238e-14        100000
       -1.405       348.432   1.80882e-12        100000
       -1.395       348.432   1.47332e-12        100000
       -1.385       348.432   1.09405e-13        100000
       -1.375       348.432   1.23992e-13        100000
       -1.365       348.432    3.2092e-13        100000
       -1.355       348.432   7.22071e-13        100000
       -1.345       348.432    1.0284e-12        100000
       -1.335       348.432   1.76506e-12        100000
       -1.325       348.432   1.21075e-12        100000
       -1.315       348.432   1.64107e-12        100000
       -1.305       348.432   1.84529e-12        100000
       -1.295       348.432   1.54625e-12        100000
       -1.285       348.432   1.90365e-12        100000
       -1.275       348.432    2.1808e-12        100000
       -1.265       348.432   2.80805e-12        100000
       -1.255       348.432   2.13704e-12        100000
       -1.245       348.432   1.02111e-12        100000
       -1.235       348.432   1.13052e-12        100000
       -1.225       348.432   1.21075e-12        100000
       -1.215       348.432   1.77236e-12        100000
       -1.205       348.432   2.07139e-12        100000
       -1.195       348.432   1.92553e-12        100000
       -1.185       348.432   1.53896e-12        100000
       -1.175       348.432   1.36391e-12        100000
       -1.165       348.432   1.67754e-12        100000
       -1.155       348.432   2.27561e-12        100000
       -1.145       348.432   3.36237e-12        100000
       -1.135       348.432   4.14279e-12        100000
       -1.125       348.432    4.2522e-12        100000
       -1.115       348.432   4.26678e-12        100000
       -1.105       348.432   3.50825e-12        100000
       -1.095       348.432   3.79269e-12        100000
       -1.085       348.432   3.38426e-12        100000
       -1.075       348.432   2.99769e-12        100000
       -1.065       348.432   1.75776e-12        100000
       -1.055       348.432   1.44414e-12        100000
       -1.045       348.432   1.95469e-12        100000
       -1.035       348.432   2.58924e-12        100000
       -1.025       348.432   2.31938e-12        100000
       -1.015       348.432   2.82993e-12        100000
       -1.005       348.432   2.89558e-12        100000
       -0.995       348.432   2.56007e-12        100000
       -0.985       348.432    2.1881e-12        100000
       -0.975       348.432   2.19539e-12        100000
       -0.965       348.432   1.93282e-12        100000
       -0.955       348.432   9.11706e-13        100000
       -0.945       348.432   7.65833e-13        100000
       -0.935       348.432   4.15738e-13        100000
       -0.925       348.432   8.82534e-13        100000
       -0.915       348.432   2.20268e-12        100000
       -0.905       348.432   1.51708e-12        100000
       -0.895       348.432   1.67754e-13        100000
       -0.885       348.432   1.82341e-13        100000
       -0.875       348.432   1.21804e-12        100000
       -0.865       348.432   1.46603e-12        100000
       -0.855       348.432   1.42226e-12        100000
       -0.845       348.432   1.19616e-12        100000
       -0.835       348.432   1.46603e-12        100000
       -0.825       348.432   2.11516e-13        100000
       -0.815       348.432   2.00576e-12        100000
       -0.805       348.432   2.49443e-12        100000
       -0.795       348.432   1.41497e-12        100000
       -0.785       348.432   1.01382e-12        100000
       -0.775       348.432   1.43685e-12        100000
       -0.765       348.432   8.31476e-13        100000
       -0.755       348.432   7.07484e-13        100000
       -0.745       348.432   1.79424e-12        100000
       -0.735       348.432   2.73512e-12        100000
       -0.725       348.432   1.89635e-12        100000
       -0.715       348.432    1.9474e-12        100000
       -0.705       348.432   2.78617e-12        100000
       -0.695       348.432    3.9094e-12        100000
       -0.685       348.432   4.07715e-12        100000
       -0.675       348.432   2.58196e-12        100000
       -0.665       348.432   9.91938e-13        100000
       -0.655       348.432    2.4069e-13        100000
       -0.645       348.432   3.50096e-13        100000
       -0.635       348.432   9.26294e-13        100000
       -0.625       348.432   8.89825e-13        100000
       -0.615       348.432   2.33397e-13        100000
       -0.605       348.432   3.57388e-13        100000
       -0.595       348.432   2.15163e-12        100000
       -0.585       348.432   1.86717e-12        100000
       -0.575       348.432   1.75777e-12        100000
       -0.565       348.432   1.61189e-12        100000
       -0.555       348.432   1.40767e-12        100000
       -0.545       348.432   1.31285e-12        100000
       -0.535       348.432   2.26103e-13        100000
       -0.525       348.432   9.33588e-13        100000
       -0.515       348.432   1.29827e-12        100000
       -0.505       348.432   4.15738e-13        100000
       -0.495       348.432   1.08675e-12        100000
       -0.485       348.432   2.07869e-12        100000
       -0.475       348.432   1.01017e-11        100000
       -0.465       348.432   8.67272e-10        100000
       -0.455       348.432   5.65871e-08        100000
       -0.445       348.432   2.59021e-06        100000
       -0.435       348.432   8.12296e-05        100000
       -0.425       348.431    0.00169724       99999.4
       -0.415       348.424     0.0228859       99991.5
       -0.405       348.361      0.192655       99928.2
       -0.395       348.062      0.994054       99629.6
       -0.385       347.225       3.24362       98794.4
       -0.375       345.697       7.35374       97283.5
       -0.365       343.605       12.9964       95241.6
       -0.355       341.159       19.6197       92892.2
       -0.345       338.509       26.8213       90394.8
       -0.335       335.743       34.3722       87838.8
       -0.325       332.906       42.1459       85272.3
       -0.315       330.028       50.0684       82723.2
       -0.305       327.125       58.0928         80208
       -0.295        324.21       66.1884       77737.1
       -0.285       321.289       74.3349       75316.8
       -0.275       318.368       82.5186       72950.7
       -0.265        315.45       90.7296         70641
       -0.255       312.539       98.9612       68388.7
       -0.245       309.635       107.208         66194
       -0.235       306.741       115.466       64057.2
       -0.225       303.857       123.733       61977.6
       -0.215       300.985       132.005       59954.8
       -0.205       298.126       140.281         57988
       -0.195        295.28       148.557       56076.5
       -0.185       292.447       156.834       54219.3
       -0.175       289.627       165.108       52415.5
       -0.165       286.828       173.378       50664.2
       -0.155       284.037       181.642       48964.6
       -0.145       281.266       189.897       47315.7
       -0.135       278.512        198.14       45716.9
       -0.125       275.777       206.368       44167.4
       -0.115       273.062       214.574         42667
       -0.105        270.37       222.753       41215.2
       -0.095       267.704       230.893       39812.7
       -0.085       265.069       238.979         38460
       -0.075       262.473       246.984       37159.7
       -0.065       259.929       254.871       35915.4
       -0.055       257.456       262.575       34734.7
       -0.045        255.09       269.984       33630.4
       -0.035       252.893       276.904       32625.5
       -0.025       250.963       283.025       31757.5
       -0.015       249.439       287.896       31079.5
       -0.005        248.45       291.094       30639.5
        0.005       247.986       292.625       30429.6
        0.015        247.85       293.094       30365.2
        0.025       247.829       293.179       30353.2
        0.035       247.831        293.19       30351.7
        0.045       247.837       293.193       30351.3
        0.055       247.842       293.195         30351
        0.065       247.849       293.197       30350.8
        0.075       247.856       293.199       30350.5
        0.085       247.864         293.2       30350.3
        0.095       247.873         293.2       30350.3
        0.105       247.883       293.199       30350.4
        0.115       247.895       293.198       30350.5
        0.125       247.909       293.198       30350.5
        0.135       247.923       293.198       30350.4
        0.145       247.938       293.199       30350.4
        0.155       247.957       293.199       30350.3
        0.165       247.978       293.199       30350.3
        0.175       248.003       293.199       30350.2
        0.185       248.032       293.199       30350.2
        0.195       248.068       293.199       30350.2
        0.205       248.112       293.199       30350.1
        0.215       248.166       293.199       30350.1
        0.225       248.237       293.199       30350.1
        0.235       248.332       293.199         30350
        0.245       248.471       293.199         30350
        0.255       248.692       293.199       30349.9
        0.265       249.075       293.199       30349.9
        0.275       251.519       293.198       30349.7
        0.285       273.935       293.183       30349.2
        0.295       329.328       293.173       30349.7
        0.305       377.734       293.193         30350
        0.315       393.971       293.198       30349.8
        0.325       396.458       293.198       30349.6
        0.335       396.683       293.198       30349.6