/*--------------------------------*- C++ -*----------------------------------*\
| =========                 |                                                 |
| \\      /  F ield         | OpenFOAM: The Open Source CFD Toolbox           |
|  \\    /   O peration     | Version:  v2012                                 |
|   \\  /    A nd           | Website:  www.openfoam.com                      |
|    \\/     M anipulation  |                                                 |
\*---------------------------------------------------------------------------*/
FoamFile
{
    version     2.0;
    format      ascii;
    class       volScalarField;
    location    "60";
    object      p;
}
// * * * * * * * * * * * * * * * * * * * * * * * * * * * * * * * * * * * * * //

dimensions      [0 2 -2 0 0 0 0];


internalField   nonuniform List<scalar> 
2200
(
0.773259
0.75176
0.735853
0.720186
0.705577
0.693062
0.682711
0.674618
0.668926
0.665994
0.666505
0.670342
0.676688
0.685252
0.69594
0.708712
0.723505
0.739436
0.75548
0.776978
0.705666
0.702407
0.699485
0.695372
0.689915
0.683447
0.676839
0.670895
0.6664
0.66403
0.664508
0.667848
0.673049
0.679523
0.686518
0.693277
0.698944
0.70304
0.705888
0.70925
0.665745
0.665966
0.668026
0.669371
0.669764
0.668917
0.666944
0.66428
0.661755
0.660289
0.660863
0.663328
0.666624
0.669859
0.672198
0.673198
0.672929
0.67194
0.670306
0.670057
0.643251
0.644703
0.647301
0.649756
0.652204
0.654228
0.655388
0.655631
0.655277
0.655014
0.655691
0.657089
0.6583
0.658702
0.658029
0.656361
0.654202
0.652007
0.64939
0.647987
0.628875
0.630847
0.633668
0.636512
0.63938
0.642221
0.644693
0.646567
0.647814
0.648641
0.649399
0.64989
0.649677
0.648585
0.646739
0.644383
0.641845
0.639119
0.63632
0.634397
0.621519
0.623117
0.625324
0.62786
0.630533
0.63321
0.635817
0.63826
0.640302
0.641835
0.642738
0.642798
0.641989
0.640497
0.638614
0.636478
0.634159
0.631821
0.629724
0.62815
0.618091
0.619114
0.620385
0.622252
0.624399
0.626576
0.628782
0.631089
0.633335
0.635221
0.636285
0.636339
0.635597
0.634418
0.633046
0.631504
0.62981
0.628237
0.627125
0.626109
0.615397
0.616066
0.616701
0.618008
0.619633
0.621335
0.623108
0.625057
0.627156
0.629162
0.630457
0.6308
0.630514
0.629918
0.629164
0.628239
0.627206
0.626289
0.625844
0.625166
0.612121
0.612566
0.612966
0.613967
0.615237
0.616631
0.618147
0.619844
0.621737
0.623749
0.62533
0.626172
0.626475
0.626457
0.626194
0.62574
0.625174
0.624649
0.624467
0.624002
0.608039
0.608336
0.608696
0.60957
0.610692
0.611981
0.613435
0.615073
0.616925
0.619014
0.620936
0.622315
0.623136
0.623545
0.62366
0.623542
0.62326
0.622948
0.622823
0.622499
0.603283
0.603485
0.603858
0.604692
0.605792
0.607113
0.608659
0.610429
0.612433
0.614728
0.617088
0.618973
0.620245
0.621015
0.62139
0.621506
0.621414
0.621249
0.621148
0.620909
0.598036
0.598182
0.598555
0.599368
0.600519
0.601962
0.603689
0.605709
0.608058
0.610793
0.613666
0.616075
0.617734
0.618785
0.619392
0.619688
0.619787
0.619765
0.619699
0.619508
0.592358
0.592466
0.592848
0.593675
0.594911
0.596523
0.598507
0.600875
0.603688
0.60701
0.610528
0.613461
0.615537
0.616919
0.617797
0.618322
0.618631
0.618748
0.618721
0.618552
0.586294
0.586362
0.586745
0.587601
0.588948
0.590745
0.593
0.595761
0.599134
0.603172
0.607465
0.611071
0.61365
0.615446
0.616693
0.617521
0.618063
0.618319
0.618334
0.618174
0.579681
0.579721
0.580145
0.581056
0.582543
0.584549
0.587099
0.590318
0.594351
0.599245
0.60445
0.608871
0.612126
0.614475
0.616179
0.617379
0.61817
0.618575
0.618638
0.61848
0.572451
0.572416
0.572836
0.573843
0.575541
0.577815
0.580737
0.584491
0.589285
0.595209
0.60155
0.606938
0.611005
0.614053
0.61633
0.617947
0.619032
0.619603
0.619716
0.619553
0.564294
0.564277
0.56474
0.565869
0.567825
0.570435
0.573837
0.578254
0.583936
0.591026
0.598701
0.605352
0.610441
0.614286
0.617181
0.619302
0.620724
0.621466
0.621635
0.621462
0.555106
0.555131
0.555573
0.556812
0.559057
0.562084
0.566099
0.571327
0.578078
0.586589
0.595934
0.604111
0.610415
0.615236
0.618877
0.621538
0.623333
0.624261
0.624482
0.624292
0.544394
0.544371
0.54492
0.546383
0.549005
0.552617
0.557449
0.563772
0.571946
0.582259
0.593538
0.603401
0.611097
0.616986
0.621441
0.624744
0.62696
0.628069
0.628339
0.628127
0.531688
0.531623
0.532298
0.534134
0.537317
0.541731
0.547659
0.555405
0.565386
0.577891
0.591511
0.603336
0.612529
0.619619
0.625012
0.629005
0.63169
0.63299
0.633297
0.633057
0.516702
0.516598
0.517372
0.519587
0.523517
0.529022
0.53642
0.546067
0.558407
0.573626
0.589932
0.603964
0.614852
0.623241
0.629638
0.634431
0.637583
0.63905
0.639384
0.639113
0.498413
0.498328
0.499341
0.502123
0.507049
0.514009
0.523367
0.535494
0.550801
0.569299
0.588684
0.605278
0.61803
0.627858
0.635421
0.641028
0.644659
0.646291
0.646623
0.646318
0.475872
0.475728
0.477031
0.480609
0.487005
0.496088
0.508173
0.523605
0.542611
0.565003
0.587962
0.607253
0.622044
0.63347
0.642245
0.648774
0.652878
0.654635
0.654936
0.6546
0.446726
0.446747
0.448846
0.453933
0.462686
0.474955
0.490904
0.510621
0.534079
0.56093
0.587853
0.610193
0.627196
0.640241
0.650295
0.657647
0.662118
0.66395
0.664187
0.663819
0.408291
0.408533
0.412063
0.420032
0.432817
0.450031
0.471235
0.496278
0.52498
0.556934
0.588282
0.613885
0.633204
0.648008
0.659306
0.667459
0.6722
0.673996
0.674141
0.67376
0.357169
0.357568
0.364549
0.377777
0.396964
0.421309
0.449511
0.481243
0.516232
0.553904
0.589873
0.618693
0.64033
0.656831
0.66941
0.678181
0.682828
0.684298
0.684279
0.683959
0.289992
0.292769
0.307852
0.329323
0.357446
0.390734
0.427125
0.466337
0.508224
0.55221
0.593237
0.625869
0.650271
0.668894
0.682844
0.69227
0.696762
0.697754
0.697687
0.697497
0.213663
0.223198
0.248378
0.279625
0.317917
0.360349
0.405
0.451962
0.501164
0.55203
0.598946
0.635837
0.663371
0.684313
0.699987
0.710096
0.714338
0.714868
0.714867
0.714793
0.145465
0.160156
0.191627
0.231878
0.279811
0.331109
0.383854
0.438575
0.495103
0.552606
0.605024
0.646043
0.676836
0.699999
0.717012
0.727596
0.731715
0.731907
0.732003
0.731995
0.0936504
0.106772
0.143407
0.189746
0.245036
0.303873
0.364027
0.425952
0.489228
0.552933
0.610588
0.655945
0.689569
0.714769
0.733163
0.744454
0.748577
0.749337
0.749544
0.749529
0.0507278
0.06318
0.103588
0.153799
0.214544
0.279355
0.34588
0.41418
0.483701
0.553706
0.617017
0.666005
0.702033
0.729148
0.748834
0.760592
0.765506
0.766503
0.766545
0.766613
0.0140995
0.0267688
0.0698332
0.122927
0.188014
0.257625
0.329581
0.403642
0.479115
0.554985
0.622986
0.675253
0.713882
0.742596
0.763742
0.776176
0.781307
0.782423
0.782492
0.782563
-0.0178266
-0.00494482
0.0402526
0.0959179
0.16464
0.238304
0.315019
0.394153
0.47481
0.555625
0.627925
0.683846
0.724633
0.754934
0.777124
0.790058
0.795653
0.796894
0.797013
0.797067
-0.0461733
-0.0332874
0.0135829
0.0717353
0.143662
0.220852
0.301633
0.38504
0.470179
0.555727
0.632653
0.691664
0.734456
0.765939
0.788804
0.802475
0.808282
0.809701
0.809841
0.80988
-0.0720364
-0.0591358
-0.0109426
0.0496271
0.124339
0.204546
0.288818
0.375968
0.465277
0.555416
0.63655
0.698219
0.743009
0.775756
0.798994
0.813193
0.819347
0.820883
0.821072
0.821082
-0.0960276
-0.0829045
-0.0339051
0.0288898
0.106043
0.188948
0.276317
0.366867
0.460069
0.554407
0.639472
0.70417
0.750789
0.784386
0.808075
0.822686
0.828902
0.830626
0.830807
0.830794
-0.118615
-0.105208
-0.0554887
0.00922103
0.0884586
0.173771
0.263945
0.357625
0.454395
0.552658
0.641671
0.709416
0.757616
0.79238
0.816435
0.830905
0.837376
0.83907
0.839266
0.839207
-0.1399
-0.126366
-0.0759686
-0.00965983
0.0713856
0.158907
0.251639
0.348135
0.448092
0.550029
0.643028
0.713968
0.764041
0.799742
0.824092
0.838427
0.844693
0.846416
0.846525
0.846417
-0.160187
-0.146581
-0.0955065
-0.0278365
0.054761
0.144239
0.239239
0.338219
0.441033
0.546502
0.643525
0.717878
0.77026
0.807102
0.831415
0.845194
0.851284
0.852806
0.852928
0.852823
-0.17986
-0.165881
-0.114304
-0.0454745
0.0384697
0.129669
0.226651
0.327848
0.433314
0.542187
0.643178
0.721201
0.776371
0.81443
0.838673
0.851878
0.85723
0.858522
0.858602
0.858516
-0.199205
-0.184532
-0.1325
-0.0626303
0.0224654
0.115127
0.213834
0.317056
0.425003
0.537003
0.64187
0.723915
0.782296
0.822335
0.84657
0.858622
0.863009
0.863654
0.863705
0.863674
-0.218086
-0.202665
-0.15022
-0.0794086
0.00669201
0.100629
0.200856
0.305915
0.41611
0.53096
0.639643
0.725952
0.788128
0.830719
0.855565
0.86648
0.868761
0.868426
0.86831
0.868162
-0.236486
-0.220419
-0.167495
-0.0957886
-0.00880353
0.0862314
0.187779
0.294459
0.406669
0.524125
0.636357
0.727032
0.793586
0.839846
0.866351
0.875919
0.875596
0.873437
0.873102
0.874027
-0.254254
-0.23772
-0.184309
-0.111771
-0.0239935
0.0720008
0.174677
0.28275
0.396748
0.51652
0.631892
0.726942
0.798539
0.849362
0.879127
0.888622
0.885533
0.878732
0.87379
0.872704
-0.271444
-0.254535
-0.200597
-0.127282
-0.0388038
0.0579964
0.161605
0.270859
0.38643
0.508198
0.626224
0.725445
0.802256
0.859078
0.893895
0.905551
0.902708
0.89156
0.891288
0.895434
-0.287987
-0.270733
-0.216296
-0.142293
-0.053204
0.0442718
0.148641
0.258876
0.375764
0.499176
0.619402
0.722303
0.804485
0.867859
0.909652
0.926733
0.92534
0.895989
0.857303
0.823429
-0.303882
-0.286356
-0.231429
-0.156847
-0.0672728
0.0307097
0.135638
0.246617
0.364517
0.489256
0.611277
0.71711
0.804042
0.874781
0.925768
0.951475
0.96436
0.940699
0.958031
1.01882
-0.319042
-0.301394
-0.246087
-0.171106
-0.0812093
0.0170845
0.122331
0.233744
0.352252
0.477883
0.601185
0.709043
0.799939
0.876811
0.933905
0.964562
0.969076
0.9432
0.900042
0.91641
-0.333475
-0.315874
-0.26023
-0.184998
-0.0949186
0.0034987
0.108836
0.220385
0.339105
0.465136
0.589099
0.697926
0.790016
0.869345
0.92762
0.958573
0.940927
0.8838
0.818428
0.805692
-0.347141
-0.329737
-0.273855
-0.198544
-0.108418
-0.0100484
0.0951741
0.206577
0.325112
0.450992
0.574861
0.683321
0.774008
0.849271
0.902254
0.90658
0.868583
0.789023
0.713175
0.688972
-0.360099
-0.343027
-0.28698
-0.211745
-0.121709
-0.0235631
0.0813433
0.192332
0.310307
0.435467
0.558392
0.664989
0.750489
0.814236
0.84242
0.827191
0.765502
0.662122
0.573618
0.550194
-0.372777
-0.356089
-0.299984
-0.22498
-0.13516
-0.0373621
0.0670799
0.177438
0.294519
0.418405
0.539447
0.642325
0.720489
0.768181
0.762406
0.725842
0.611842
0.487781
0.379256
0.351001
-0.386058
-0.369774
-0.313563
-0.238835
-0.149305
-0.0519123
0.0519749
0.16155
0.277482
0.399579
0.517736
0.61498
0.685817
0.708597
0.674911
0.584914
0.427337
0.273432
0.143012
0.114474
-0.400439
-0.384376
-0.328014
-0.253577
-0.164356
-0.0673554
0.0359449
0.144636
0.2592
0.379028
0.493254
0.583859
0.64393
0.637931
0.585655
0.434306
0.2338
0.0206161
-0.159958
-0.20922
-0.416072
-0.400117
-0.343417
-0.269185
-0.18025
-0.0836483
0.0190129
0.12671
0.239704
0.356787
0.465947
0.550316
0.595411
0.557579
0.470155
0.281792
0.0507121
-0.237847
-0.558543
-0.707356
-0.432997
-0.41695
-0.359872
-0.285808
-0.197103
-0.100877
0.00111387
0.107724
0.218958
0.332952
0.436264
0.513907
0.540876
0.472807
0.336133
0.131035
-0.102219
-0.445151
-1.03009
-1.60102
-0.451348
-0.435137
-0.377484
-0.303445
-0.214878
-0.119014
-0.0177227
0.0877376
0.197111
0.307835
0.405186
0.474712
0.482759
0.398388
0.207071
-0.0255783
-0.227312
-0.460591
-1.01271
-2.51931
-0.471098
-0.454555
-0.39632
-0.322303
-0.233809
-0.138288
-0.0377364
0.0664866
0.173842
0.28115
0.372494
0.432139
0.419594
0.340079
0.1141
-0.12274
-0.269666
-0.306036
-0.294366
-0.680083
-0.492231
-0.475596
-0.416611
-0.342592
-0.254217
-0.159169
-0.0595529
0.0431913
0.148218
0.251515
0.337197
0.386372
0.35783
0.290311
0.064478
-0.136386
-0.246343
-0.253811
-0.200412
-0.24036
-0.514579
-0.497829
-0.438281
-0.364479
-0.276292
-0.181832
-0.0833378
0.0176879
0.120024
0.218836
0.299448
0.33858
0.303524
0.23649
0.0325485
-0.126625
-0.208175
-0.215979
-0.264007
-0.267889
-0.538182
-0.521516
-0.461351
-0.387846
-0.299915
-0.206257
-0.109136
-0.010094
0.0892439
0.183463
0.259036
0.288671
0.25655
0.175836
0.00444858
-0.11699
-0.186467
-0.163826
-0.184083
-0.185707
-0.562676
-0.545751
-0.485559
-0.412724
-0.325077
-0.232423
-0.136881
-0.0400405
0.0560116
0.14567
0.216323
0.235407
0.215667
0.10789
-0.0305822
-0.112069
-0.15009
-0.198482
-0.172836
-0.181418
-0.588012
-0.570699
-0.510875
-0.438798
-0.351409
-0.260122
-0.166394
-0.0719553
0.0204287
0.105753
0.17236
0.181094
0.173056
0.0475866
-0.0672179
-0.130758
-0.107006
-0.166921
-0.147875
-0.152793
-0.612944
-0.59552
-0.537105
-0.465889
-0.37872
-0.289179
-0.1974
-0.105516
-0.0172652
0.0641529
0.128187
0.129392
0.12127
-0.00386982
-0.0941281
-0.144727
-0.133373
-0.147886
-0.15344
-0.15157
-0.637333
-0.620029
-0.563596
-0.493159
-0.40651
-0.319198
-0.229512
-0.140329
-0.0565526
0.0212106
0.0840541
0.0816826
0.0637842
-0.0460791
-0.107613
-0.138734
-0.177768
-0.148921
-0.154677
-0.149041
-0.65996
-0.643362
-0.588979
-0.519768
-0.434579
-0.349699
-0.26219
-0.175866
-0.096538
-0.0226803
0.0396909
0.0381604
0.00840562
-0.0815142
-0.121769
-0.113485
-0.18674
-0.129228
-0.144457
-0.136587
-0.680373
-0.664885
-0.612526
-0.544545
-0.462427
-0.379859
-0.29478
-0.211502
-0.136271
-0.067192
-0.00528435
-0.00222513
-0.0372293
-0.100285
-0.128977
-0.0888765
-0.133071
-0.115859
-0.122109
-0.119032
-0.696761
-0.682927
-0.633177
-0.567273
-0.48903
-0.408647
-0.326425
-0.246472
-0.174902
-0.111439
-0.05096
-0.0405167
-0.0689479
-0.10179
-0.119722
-0.0960913
-0.110453
-0.113822
-0.114886
-0.115167
-0.708481
-0.696809
-0.650353
-0.586972
-0.512666
-0.435224
-0.356288
-0.279886
-0.211579
-0.154118
-0.0954617
-0.0765211
-0.0934834
-0.097003
-0.110449
-0.123761
-0.115583
-0.120415
-0.117554
-0.118287
-0.713952
-0.704715
-0.662438
-0.602513
-0.532146
-0.458352
-0.383202
-0.310662
-0.245511
-0.193601
-0.136695
-0.1129
-0.12219
-0.0979755
-0.0975622
-0.132277
-0.111998
-0.124101
-0.117984
-0.120386
-0.713365
-0.706282
-0.668335
-0.612294
-0.546276
-0.476876
-0.406064
-0.337514
-0.275711
-0.227968
-0.173069
-0.149423
-0.154867
-0.117895
-0.0727565
-0.109171
-0.0928324
-0.117047
-0.120331
-0.12395
-0.705617
-0.698271
-0.665437
-0.615001
-0.554156
-0.489556
-0.42338
-0.35891
-0.300433
-0.255443
-0.20387
-0.183379
-0.188374
-0.169966
-0.106567
-0.123764
-0.141901
-0.155493
-0.159166
-0.160252
-0.685398
-0.676989
-0.652278
-0.60922
-0.554643
-0.495661
-0.43445
-0.373514
-0.317436
-0.273676
-0.225509
-0.209629
-0.240011
-0.331933
-0.481106
-0.572616
-0.593392
-0.55508
-0.510627
-0.478424
-0.643028
-0.635002
-0.626056
-0.595089
-0.548429
-0.495083
-0.438619
-0.380247
-0.324537
-0.279738
-0.233478
-0.206182
-0.297549
-0.468707
-0.714761
-0.840549
-0.853627
-0.812937
-0.766094
-0.715844
-0.601847
-0.598895
-0.598185
-0.573945
-0.536308
-0.489466
-0.436451
-0.379079
-0.320339
-0.269673
-0.219867
-0.15358
-0.142749
-0.165153
-0.23596
-0.221103
-0.14018
-0.0753241
-0.00296287
0.0366278
-0.579883
-0.581505
-0.571654
-0.556394
-0.525378
-0.481625
-0.429725
-0.371615
-0.306606
-0.240563
-0.175663
-0.0499628
0.108222
0.366823
0.624942
0.843679
1.00354
1.0969
1.13666
1.16852
-0.548432
-0.548284
-0.544822
-0.542263
-0.516382
-0.474935
-0.421845
-0.360611
-0.288536
-0.204892
-0.116311
0.0282531
0.247988
0.585472
0.926694
1.20694
1.4002
1.51597
1.57195
1.59184
-0.534403
-0.532627
-0.535337
-0.529202
-0.509713
-0.470705
-0.416133
-0.350544
-0.272699
-0.177219
-0.0734526
0.0596413
0.298419
0.616933
0.937178
1.20839
1.40944
1.53055
1.58436
1.59976
-0.521604
-0.520485
-0.524281
-0.517183
-0.505204
-0.466124
-0.410505
-0.342604
-0.26201
-0.161452
-0.0529613
0.0513641
0.270338
0.54326
0.81294
1.0462
1.22769
1.33662
1.38449
1.39779
-0.504288
-0.504046
-0.505371
-0.502385
-0.500111
-0.463775
-0.409259
-0.339802
-0.257893
-0.158775
-0.0542854
0.0229352
0.202965
0.43377
0.650564
0.835576
0.98348
1.07331
1.11215
1.12195
-0.488985
-0.488319
-0.485279
-0.483162
-0.481499
-0.458943
-0.410116
-0.34064
-0.260348
-0.167646
-0.0687765
-0.00851548
0.127942
0.320001
0.491819
0.632306
0.744416
0.813589
0.843223
0.850891
-0.494215
-0.491765
-0.485862
-0.485181
-0.480804
-0.461933
-0.41141
-0.341737
-0.263879
-0.180779
-0.0877816
-0.0361618
0.0596368
0.214735
0.350241
0.455759
0.537936
0.590158
0.6117
0.616018
-0.520258
-0.518509
-0.517398
-0.524488
-0.520235
-0.489467
-0.420042
-0.343644
-0.265378
-0.191695
-0.105527
-0.0577159
0.00551967
0.127478
0.232401
0.311003
0.371607
0.410367
0.425321
0.4304
-0.558282
-0.56118
-0.568864
-0.578945
-0.570112
-0.512594
-0.426972
-0.342338
-0.262185
-0.196639
-0.118441
-0.0733253
-0.0321167
0.0636114
0.142429
0.199315
0.244523
0.274859
0.285087
0.287985
-0.539194
-0.543864
-0.554814
-0.568362
-0.554658
-0.494572
-0.409857
-0.327587
-0.250092
-0.192187
-0.124376
-0.0829502
-0.055622
0.020441
0.0780657
0.117799
0.151545
0.172809
0.182025
0.184699
-0.426778
-0.432845
-0.445987
-0.453108
-0.445259
-0.40593
-0.348874
-0.288362
-0.225551
-0.175754
-0.122986
-0.0872746
-0.0673898
-0.00842348
0.0325881
0.0609822
0.0838893
0.0974123
0.1036
0.105174
-0.265639
-0.269915
-0.275227
-0.281446
-0.281659
-0.26999
-0.248838
-0.22132
-0.183892
-0.149338
-0.114033
-0.0867106
-0.0690311
-0.0273164
0.00122198
0.0210015
0.0352231
0.0428728
0.0454816
0.0453527
-0.123462
-0.125476
-0.12945
-0.136147
-0.14216
-0.146714
-0.148986
-0.146029
-0.132647
-0.11712
-0.0976521
-0.0797527
-0.0642864
-0.0373829
-0.0190709
-0.00696058
0.000533215
0.00333799
0.0032252
0.00225178
-0.0220483
-0.0231921
-0.0259205
-0.0333147
-0.0452202
-0.0592199
-0.0726018
-0.08219
-0.0845175
-0.0840265
-0.0762426
-0.0669065
-0.0564128
-0.0407376
-0.0309384
-0.0253128
-0.02282
-0.0232717
-0.0250096
-0.026345
0.0348984
0.0340484
0.031917
0.0247423
0.0107408
-0.00731538
-0.0245295
-0.0388265
-0.0480318
-0.0554563
-0.0545935
-0.0506964
-0.0474178
-0.0402885
-0.0368009
-0.0358298
-0.036653
-0.0389573
-0.0411851
-0.0425914
0.0595436
0.0589485
0.057182
0.0508853
0.0380083
0.0204258
0.00282888
-0.0130904
-0.0248429
-0.0347107
-0.0367204
-0.0366559
-0.0384347
-0.0369729
-0.0375346
-0.0396524
-0.042355
-0.0454055
-0.0476163
-0.0489609
0.065866
0.0654047
0.0639858
0.0589303
0.0484449
0.0335616
0.0176089
0.00190304
-0.010552
-0.0209394
-0.0238942
-0.026432
-0.030331
-0.0322341
-0.0352466
-0.0388922
-0.0422258
-0.0451455
-0.0470748
-0.0482908
0.06273
0.0624035
0.0613188
0.0575064
0.0495476
0.0379839
0.0248071
0.010755
-0.00106265
-0.0116331
-0.0153176
-0.0188241
-0.0234594
-0.0267872
-0.0307674
-0.0348233
-0.0381871
-0.0408227
-0.0423365
-0.0434032
0.0554554
0.0552368
0.0544413
0.0516745
0.0458426
0.0372197
0.026988
0.015397
0.00539102
-0.00481565
-0.00928385
-0.0126176
-0.0173457
-0.0210271
-0.0253917
-0.0294284
-0.0325558
-0.0348519
-0.0359698
-0.0368709
0.0469535
0.0468221
0.0462537
0.0443246
0.0402024
0.0339197
0.0262231
0.017048
0.00924962
2.20134e-05
-0.00470292
-0.00750391
-0.0116968
-0.0154311
-0.0199158
-0.023768
-0.026592
-0.0285938
-0.0293708
-0.0301018
0.0384781
0.0384203
0.0380313
0.0367116
0.0338574
0.0294263
0.023815
0.016735
0.0109732
0.0031139
-0.00110841
-0.00373743
-0.00747509
-0.0107513
-0.0148074
-0.0181897
-0.0206778
-0.0224381
-0.0230305
-0.0236355
0.0305037
0.0304676
0.0302007
0.0293132
0.0273467
0.0242097
0.0201551
0.0148309
0.0108238
0.00452877
0.00121579
-0.00118372
-0.00477156
-0.00750282
-0.0107803
-0.0134925
-0.0155192
-0.016975
-0.0174061
-0.017872
0.0233947
0.0233699
0.023188
0.0225943
0.0212732
0.0191028
0.0161494
0.0121087
0.00935839
0.00446359
0.00201235
0.000119038
-0.00300034
-0.00515622
-0.00770128
-0.00977284
-0.011252
-0.0123101
-0.0126304
-0.0130203
0.0171097
0.0170935
0.0169956
0.0166195
0.0157718
0.0143477
0.0123683
0.00936202
0.0075453
0.00367516
0.00192027
0.000360662
-0.00213497
-0.00348038
-0.00527096
-0.00666955
-0.00762794
-0.00832166
-0.00853437
-0.00884552
0.0114649
0.0114473
0.0113845
0.0111766
0.0106902
0.00984042
0.0087204
0.00665587
0.00566889
0.0025881
0.00133073
4.19603e-05
-0.00182357
-0.00220715
-0.00332337
-0.00411707
-0.00459535
-0.00494885
-0.00507517
-0.00538611
0.00646339
0.0064404
0.00640166
0.00634195
0.00614861
0.00574021
0.00528814
0.00397892
0.00369283
0.00149285
0.000716527
-0.000265875
-0.00155286
-0.001296
-0.00208427
-0.00233629
-0.00237787
-0.00242693
-0.00234238
-0.00260762
0.00215536
0.00216759
0.00219258
0.00222213
0.00221715
0.00205326
0.00201054
0.00134666
0.00152723
0.000446533
0.000385285
0.000164921
-0.000620626
-0.000304282
-0.00129721
-0.00156594
-0.00192161
-0.00220839
-0.00193516
-0.00193767
-1.0728
-0.235788
0.0341426
0.309371
0.489578
0.643933
0.7678
0.894208
1.03418
1.11805
-0.0953456
0.310001
0.32531
0.512768
0.635126
0.744917
0.839181
0.92334
0.950379
0.90873
0.279121
0.491942
0.525886
0.661741
0.746487
0.825325
0.89039
0.939273
0.941145
0.955461
0.506925
0.648803
0.683473
0.784235
0.840834
0.897706
0.942151
0.974294
0.983249
1.00701
0.683564
0.784115
0.813819
0.880601
0.924967
0.965465
0.997368
1.02155
1.03125
1.06289
0.825948
0.894265
0.924478
0.966954
1.00284
1.03275
1.05689
1.0776
1.09166
1.12
0.944533
0.994824
1.02028
1.04806
1.07555
1.09922
1.1191
1.13833
1.15318
1.17973
1.04795
1.08482
1.10581
1.12636
1.14705
1.16638
1.18376
1.20186
1.21673
1.2404
1.14172
1.17076
1.18705
1.20227
1.21833
1.23437
1.24991
1.26681
1.28043
1.30275
1.22987
1.2503
1.26512
1.27827
1.29182
1.30558
1.31908
1.33367
1.34521
1.36485
1.31525
1.33103
1.34484
1.35665
1.36856
1.3802
1.39133
1.40301
1.41068
1.42748
1.40047
1.41301
1.42672
1.43846
1.4491
1.4589
1.46772
1.47598
1.47954
1.49078
1.48921
1.50004
1.51351
1.52303
1.5306
1.53789
1.54508
1.55156
1.55265
1.56002
1.58762
1.59223
1.60042
1.60516
1.60856
1.61303
1.61903
1.62669
1.63059
1.64047
1.70092
1.68781
1.68052
1.6748
1.67208
1.67342
1.67975
1.69212
1.70694
1.73661
1.8229
1.76686
1.73584
1.71864
1.71042
1.71035
1.7192
1.73881
1.77061
1.83988
)
;

boundaryField
{
    wall-4
    {
        type            zeroGradient;
    }
    pressure-outlet-7
    {
        type            fixedValue;
        value           uniform 0;
    }
    velocity-inlet-6
    {
        type            zeroGradient;
    }
    velocity-inlet-5
    {
        type            zeroGradient;
    }
    frontAndBackPlanes
    {
        type            empty;
    }
}


// ************************************************************************* //
