/*--------------------------------*- C++ -*----------------------------------*\
| =========                 |                                                 |
| \\      /  F ield         | OpenFOAM: The Open Source CFD Toolbox           |
|  \\    /   O peration     | Version:  v2012                                 |
|   \\  /    A nd           | Website:  www.openfoam.com                      |
|    \\/     M anipulation  |                                                 |
\*---------------------------------------------------------------------------*/
FoamFile
{
    version     2.0;
    format      ascii;
    class       volScalarField;
    location    "13";
    object      p;
}
// * * * * * * * * * * * * * * * * * * * * * * * * * * * * * * * * * * * * * //

dimensions      [0 2 -2 0 0 0 0];


internalField   nonuniform List<scalar> 
2200
(
0.428221
0.406761
0.390943
0.375351
0.360901
0.348674
0.338576
0.330683
0.325127
0.322191
0.322451
0.325825
0.331701
0.339834
0.3501
0.362451
0.376984
0.392625
0.408473
0.429948
0.360546
0.357312
0.354506
0.35055
0.345329
0.339056
0.332643
0.32695
0.322616
0.320246
0.320476
0.323338
0.328022
0.333968
0.34056
0.346949
0.352253
0.356272
0.359119
0.362365
0.320178
0.320541
0.322902
0.324611
0.325399
0.324807
0.323054
0.320548
0.318066
0.316474
0.316771
0.318891
0.321752
0.32453
0.326474
0.327204
0.326514
0.324872
0.322558
0.322215
0.297276
0.298841
0.301822
0.304677
0.307494
0.309892
0.311485
0.312032
0.311823
0.311382
0.311763
0.312764
0.313392
0.313159
0.3118
0.309569
0.306874
0.304103
0.301173
0.299623
0.283148
0.285045
0.288085
0.291191
0.294288
0.297349
0.30014
0.302351
0.303893
0.304747
0.305135
0.304955
0.303965
0.302129
0.299605
0.296731
0.293759
0.290745
0.28777
0.285881
0.277031
0.278417
0.280847
0.283859
0.286876
0.289694
0.292115
0.294348
0.296327
0.297778
0.298237
0.297641
0.29635
0.294593
0.292466
0.28986
0.286985
0.284061
0.281683
0.280303
0.276369
0.277126
0.278694
0.281256
0.283977
0.286409
0.288426
0.2903
0.291949
0.293238
0.293808
0.293534
0.292666
0.291385
0.289764
0.287624
0.285102
0.282664
0.281144
0.2804
0.277717
0.278034
0.278871
0.280553
0.282492
0.284403
0.286179
0.287853
0.28929
0.290451
0.291136
0.291148
0.290609
0.28968
0.288475
0.286951
0.285271
0.283761
0.282992
0.282669
0.277777
0.27786
0.27817
0.278897
0.279852
0.281017
0.282413
0.283935
0.285411
0.286746
0.287668
0.287895
0.2876
0.286939
0.28619
0.285447
0.284767
0.284225
0.283996
0.283921
0.275389
0.275415
0.275495
0.275766
0.276202
0.276817
0.277745
0.278983
0.2804
0.281895
0.283135
0.283781
0.283865
0.283678
0.283429
0.28328
0.28316
0.283094
0.283102
0.283072
0.272052
0.272006
0.272133
0.272404
0.272835
0.273394
0.27417
0.275203
0.276503
0.278046
0.279504
0.280577
0.281176
0.281498
0.28164
0.281701
0.281686
0.281667
0.28168
0.281689
0.268644
0.268647
0.268798
0.26915
0.269659
0.270345
0.271264
0.272411
0.27384
0.275565
0.277291
0.278681
0.279686
0.280216
0.28055
0.280712
0.28074
0.280727
0.280726
0.280729
0.264948
0.264973
0.265093
0.265381
0.265891
0.266598
0.267611
0.26896
0.270694
0.272823
0.275038
0.276797
0.278075
0.278892
0.279414
0.279727
0.279899
0.279993
0.280041
0.28004
0.260476
0.260472
0.260628
0.260901
0.261373
0.262097
0.263176
0.264698
0.266762
0.269401
0.272266
0.274605
0.276252
0.277416
0.278211
0.278743
0.27909
0.279308
0.279417
0.279418
0.255291
0.255283
0.255473
0.255804
0.256343
0.257193
0.258453
0.260257
0.262747
0.266002
0.269611
0.272648
0.274803
0.276383
0.277456
0.278174
0.278639
0.278922
0.279059
0.279064
0.249337
0.249332
0.249557
0.250029
0.250764
0.251851
0.253439
0.255689
0.258785
0.262844
0.267359
0.271198
0.274009
0.276006
0.277344
0.278243
0.278823
0.27917
0.279333
0.279333
0.242691
0.242695
0.24297
0.243523
0.244426
0.245798
0.247808
0.250658
0.254567
0.259679
0.265355
0.270176
0.27371
0.276173
0.277852
0.278971
0.279687
0.28011
0.280305
0.280303
0.234825
0.234835
0.23521
0.23594
0.237102
0.238841
0.241376
0.244973
0.24991
0.256355
0.263471
0.269487
0.273873
0.276946
0.279051
0.28046
0.281374
0.281926
0.282183
0.282178
0.225654
0.225659
0.226109
0.226996
0.228461
0.230695
0.23395
0.238556
0.24483
0.252958
0.261852
0.269334
0.274775
0.278596
0.281212
0.282958
0.28408
0.284742
0.285044
0.285034
0.214437
0.214476
0.215117
0.216332
0.21826
0.221151
0.225348
0.231262
0.239261
0.249507
0.260577
0.269827
0.276534
0.281238
0.284455
0.286603
0.287998
0.28884
0.28923
0.289223
0.200911
0.200926
0.20172
0.203282
0.205834
0.209706
0.215233
0.222927
0.233161
0.246049
0.259762
0.271127
0.27935
0.285137
0.289111
0.291777
0.293498
0.294509
0.294964
0.294935
0.183781
0.18391
0.185105
0.18732
0.1908
0.195968
0.203329
0.213414
0.226528
0.242671
0.259526
0.273369
0.283373
0.290429
0.29529
0.29855
0.300676
0.301958
0.302542
0.302523
0.162401
0.162487
0.164078
0.167216
0.172128
0.179343
0.189329
0.202592
0.219353
0.239421
0.259946
0.276649
0.288723
0.297296
0.303283
0.307377
0.310057
0.311648
0.312356
0.312285
0.133854
0.134402
0.13701
0.141758
0.149065
0.159297
0.173021
0.190544
0.211833
0.236549
0.26128
0.28121
0.295631
0.305967
0.313267
0.318324
0.32172
0.323776
0.324722
0.324633
0.0961476
0.0969493
0.101289
0.109231
0.120586
0.135556
0.154483
0.177403
0.204152
0.234216
0.263589
0.287026
0.304009
0.316313
0.325213
0.331577
0.335993
0.338794
0.340107
0.339863
0.0459735
0.0466708
0.0548325
0.0682536
0.08633
0.108223
0.133941
0.163502
0.196648
0.232664
0.267023
0.294181
0.313947
0.328459
0.339159
0.347073
0.352789
0.356413
0.357774
0.357399
-0.0235368
-0.0191783
-0.00144427
0.0216346
0.0485674
0.0786587
0.112239
0.14936
0.18959
0.232251
0.272299
0.303909
0.327241
0.344803
0.358183
0.368464
0.376432
0.382323
0.384595
0.38457
-0.106477
-0.0909329
-0.0601041
-0.0263341
0.0100833
0.0486616
0.0905615
0.135457
0.182957
0.232671
0.279042
0.315844
0.343451
0.364761
0.38168
0.395316
0.406219
0.414626
0.420959
0.421833
-0.171407
-0.153979
-0.114509
-0.0727949
-0.0277583
0.0195702
0.0697405
0.122137
0.176755
0.233272
0.285579
0.327052
0.35824
0.382381
0.401454
0.416902
0.429314
0.438678
0.444132
0.444888
-0.219784
-0.204136
-0.160372
-0.113878
-0.0620736
-0.00729336
0.0500617
0.109379
0.17077
0.23365
0.291335
0.33665
0.370322
0.396035
0.415955
0.431624
0.444164
0.453518
0.458955
0.459799
-0.259385
-0.243897
-0.198142
-0.148777
-0.091717
-0.0313457
0.0318241
0.097248
0.164688
0.233176
0.295413
0.343651
0.378948
0.405467
0.425739
0.441365
0.454013
0.46299
0.468773
0.469561
-0.293406
-0.277588
-0.229756
-0.178127
-0.11718
-0.0527945
0.0149898
0.0855789
0.158187
0.231629
0.297962
0.348817
0.385489
0.41266
0.433301
0.449045
0.461621
0.470677
0.476399
0.477064
-0.323269
-0.307512
-0.257251
-0.203229
-0.139303
-0.0720983
-0.000631761
0.0742597
0.15135
0.229386
0.299638
0.352999
0.391147
0.419147
0.440208
0.45613
0.468614
0.477761
0.483123
0.483885
-0.350014
-0.334514
-0.282231
-0.225689
-0.159183
-0.089696
-0.0151678
0.0633335
0.144384
0.226704
0.300798
0.356904
0.396683
0.425517
0.44698
0.463122
0.475517
0.484641
0.489896
0.490608
-0.374597
-0.359105
-0.305901
-0.246934
-0.177985
-0.10619
-0.0288587
0.0527777
0.137405
0.22383
0.301909
0.360818
0.40219
0.431947
0.4538
0.470016
0.482406
0.4914
0.496648
0.497368
-0.397793
-0.381804
-0.328528
-0.267609
-0.196525
-0.122293
-0.0422156
0.0422876
0.130208
0.220442
0.302219
0.36394
0.40725
0.438083
0.460543
0.477174
0.489616
0.498577
0.503761
0.504394
-0.419489
-0.403392
-0.349838
-0.287592
-0.214935
-0.138435
-0.0557769
0.0313913
0.122359
0.21616
0.301798
0.366944
0.412521
0.444767
0.467836
0.484627
0.497084
0.505921
0.511072
0.511764
-0.439891
-0.423917
-0.369843
-0.30668
-0.232946
-0.15461
-0.0697316
0.0198803
0.113773
0.211154
0.300937
0.369395
0.417371
0.451088
0.475155
0.492485
0.505195
0.514017
0.519069
0.519649
-0.459634
-0.443396
-0.388881
-0.324988
-0.250377
-0.170609
-0.0839168
0.00787537
0.104493
0.205194
0.298619
0.370807
0.422136
0.458223
0.483381
0.501218
0.513892
0.522468
0.527457
0.528028
-0.479151
-0.462187
-0.407353
-0.342767
-0.267258
-0.186294
-0.0981186
-0.00447515
0.0944967
0.198167
0.295488
0.371864
0.42647
0.465067
0.491806
0.510264
0.523178
0.531923
0.53656
0.536928
-0.498399
-0.480613
-0.425485
-0.360183
-0.283732
-0.201697
-0.11227
-0.0170655
0.0839552
0.190408
0.291594
0.371783
0.430091
0.471768
0.500838
0.520505
0.533528
0.541457
0.545833
0.546066
-0.517187
-0.49881
-0.443284
-0.377241
-0.299896
-0.216897
-0.126377
-0.0298337
0.0729574
0.181775
0.286017
0.370365
0.433071
0.478715
0.510821
0.531856
0.544768
0.552329
0.555868
0.555673
-0.535351
-0.516605
-0.460645
-0.393867
-0.315757
-0.231928
-0.140464
-0.0427895
0.0614357
0.172195
0.279402
0.367768
0.434476
0.484654
0.520707
0.544682
0.558374
0.563929
0.56517
0.564581
-0.552828
-0.533835
-0.477425
-0.409983
-0.331253
-0.246743
-0.154496
-0.0558852
0.0495068
0.161916
0.271745
0.363464
0.434694
0.489507
0.530475
0.55893
0.57486
0.578525
0.575399
0.572398
-0.569576
-0.550364
-0.493536
-0.425522
-0.346294
-0.261243
-0.168372
-0.0690276
0.0373461
0.151073
0.262797
0.357521
0.432693
0.492523
0.539566
0.574513
0.596154
0.598511
0.590166
0.5942
-0.585579
-0.566176
-0.508933
-0.440426
-0.360796
-0.275327
-0.18199
-0.0820988
0.0250066
0.139706
0.252793
0.34983
0.428594
0.493064
0.545715
0.588831
0.62144
0.623373
0.581929
0.52786
-0.600788
-0.581313
-0.523672
-0.454767
-0.374848
-0.289105
-0.19548
-0.0952514
0.0122591
0.127548
0.241572
0.34001
0.421069
0.489795
0.548071
0.599974
0.647806
0.682984
0.713981
0.766238
-0.615168
-0.595841
-0.537862
-0.468693
-0.38863
-0.302788
-0.209104
-0.108843
-0.00128628
0.114157
0.228595
0.327488
0.410294
0.481124
0.540489
0.589992
0.627721
0.654265
0.644569
0.648393
-0.628747
-0.60967
-0.551463
-0.482168
-0.402075
-0.316297
-0.222758
-0.122739
-0.015476
0.0995784
0.213547
0.311873
0.393577
0.463438
0.519658
0.560466
0.568794
0.539072
0.490917
0.485583
-0.641612
-0.62281
-0.564479
-0.495205
-0.415198
-0.329641
-0.236425
-0.136871
-0.0302839
0.0837758
0.196471
0.293205
0.371348
0.435252
0.484302
0.499465
0.468327
0.402283
0.33185
0.325771
-0.653782
-0.635318
-0.576937
-0.507826
-0.428016
-0.342825
-0.250094
-0.151252
-0.0456497
0.0670141
0.177702
0.272278
0.344985
0.395586
0.421328
0.4069
0.358587
0.255106
0.164892
0.150372
-0.665647
-0.647616
-0.589213
-0.520382
-0.440862
-0.356144
-0.264024
-0.166071
-0.0617133
0.0490282
0.156855
0.247802
0.31414
0.34928
0.339301
0.294995
0.185948
0.0563404
-0.0573382
-0.0795228
-0.678007
-0.660422
-0.601948
-0.53344
-0.454263
-0.370034
-0.278586
-0.181635
-0.0787843
0.0296528
0.133813
0.220018
0.278223
0.292952
0.244622
0.146937
-0.0261848
-0.190535
-0.32515
-0.350439
-0.691316
-0.674077
-0.615395
-0.547198
-0.468367
-0.384601
-0.293867
-0.198042
-0.0968537
0.00907313
0.10897
0.190013
0.237692
0.22261
0.14331
-0.0247284
-0.254125
-0.490219
-0.684707
-0.733645
-0.705611
-0.688605
-0.629549
-0.561657
-0.483124
-0.399792
-0.309811
-0.215153
-0.115776
-0.012793
0.0821871
0.156308
0.19108
0.139488
0.0211385
-0.205526
-0.482272
-0.818427
-1.1761
-1.31556
-0.720908
-0.704025
-0.644437
-0.576894
-0.498538
-0.415626
-0.326429
-0.233016
-0.135645
-0.0358749
0.053905
0.121078
0.1392
0.0460753
-0.130314
-0.393023
-0.687912
-1.10219
-1.7596
-2.36823
-0.737186
-0.720327
-0.660087
-0.59295
-0.51457
-0.432061
-0.343676
-0.251517
-0.156189
-0.0598676
0.0244047
0.0828538
0.0839928
-0.0453626
-0.285329
-0.594893
-0.86949
-1.18759
-1.87195
-3.6294
-0.754427
-0.737408
-0.676542
-0.609913
-0.531282
-0.449224
-0.361695
-0.270804
-0.177621
-0.0850385
-0.00631121
0.0423963
0.0207003
-0.12539
-0.41339
-0.747053
-0.971643
-1.07511
-1.1373
-1.60004
-0.772545
-0.755238
-0.694033
-0.627952
-0.548913
-0.467479
-0.380941
-0.291512
-0.200712
-0.112285
-0.0394725
0.000170219
-0.0427731
-0.190747
-0.493304
-0.802213
-0.987085
-1.03545
-0.99531
-1.04986
-0.791281
-0.773688
-0.712625
-0.646954
-0.56745
-0.48685
-0.401444
-0.313585
-0.225421
-0.141697
-0.0742062
-0.0438285
-0.106858
-0.251357
-0.548215
-0.810209
-0.964363
-1.01674
-1.04078
-1.06619
-0.81042
-0.792544
-0.732278
-0.666632
-0.586766
-0.507265
-0.422975
-0.336866
-0.25164
-0.172719
-0.110829
-0.0862811
-0.171382
-0.321508
-0.601958
-0.826951
-0.957168
-0.960977
-0.987826
-0.986718
-0.829733
-0.811726
-0.752557
-0.68658
-0.606721
-0.528469
-0.445314
-0.361143
-0.278981
-0.204447
-0.148786
-0.12696
-0.232628
-0.407421
-0.660254
-0.840571
-0.954141
-0.956037
-0.963505
-0.966284
-0.84884
-0.83082
-0.772696
-0.706369
-0.626961
-0.55017
-0.468013
-0.38596
-0.306683
-0.236111
-0.187217
-0.162748
-0.283473
-0.501632
-0.736149
-0.868905
-0.934533
-0.961917
-0.949636
-0.958156
-0.867384
-0.849555
-0.792031
-0.725507
-0.647136
-0.571723
-0.49035
-0.411069
-0.333814
-0.266497
-0.225856
-0.204184
-0.338406
-0.590353
-0.830022
-0.920893
-0.875521
-0.931887
-0.937086
-0.945961
-0.884391
-0.866834
-0.809678
-0.743254
-0.667038
-0.592188
-0.512406
-0.436025
-0.360182
-0.293778
-0.257254
-0.226706
-0.383677
-0.674973
-0.930742
-1.03475
-0.970147
-0.982749
-1.005
-1.00815
-0.899229
-0.882067
-0.825396
-0.759289
-0.685305
-0.610313
-0.533473
-0.459842
-0.385869
-0.318571
-0.28014
-0.229053
-0.395768
-0.715521
-1.0366
-1.29536
-1.34636
-1.28336
-1.26305
-1.24463
-0.910583
-0.894071
-0.838174
-0.772529
-0.699888
-0.626075
-0.551971
-0.481506
-0.40926
-0.341905
-0.29618
-0.238221
-0.402924
-0.730376
-1.15866
-1.60564
-1.80531
-1.745
-1.64034
-1.5701
-0.91729
-0.901329
-0.846374
-0.781331
-0.709768
-0.63803
-0.566957
-0.501384
-0.434371
-0.363802
-0.316776
-0.246202
-0.381901
-0.685437
-1.07179
-1.48312
-1.66727
-1.61628
-1.47487
-1.42425
-0.917659
-0.902354
-0.848665
-0.784454
-0.714152
-0.644769
-0.577675
-0.517367
-0.461376
-0.400075
-0.328351
-0.259246
-0.318209
-0.438535
-0.54065
-0.64793
-0.686208
-0.64412
-0.576206
-0.501264
-0.910308
-0.895718
-0.843361
-0.780436
-0.711862
-0.645114
-0.582853
-0.528779
-0.484841
-0.453338
-0.37621
-0.310629
-0.216408
-0.0863669
0.105571
0.271077
0.383647
0.45646
0.491704
0.512675
-0.893013
-0.879643
-0.829613
-0.768284
-0.701541
-0.638232
-0.581825
-0.537974
-0.517392
-0.527127
-0.512147
-0.41432
-0.137114
0.185731
0.552348
0.889676
1.11041
1.21011
1.23471
1.24706
-0.865333
-0.853146
-0.805437
-0.746472
-0.682819
-0.624265
-0.574565
-0.546256
-0.565206
-0.638915
-0.741664
-0.568627
-0.164307
0.285881
0.7578
1.17315
1.4167
1.50733
1.5297
1.53523
-0.825529
-0.815175
-0.770086
-0.715103
-0.656018
-0.602033
-0.55942
-0.54786
-0.604283
-0.763409
-1.06108
-0.838442
-0.297449
0.272583
0.792357
1.17423
1.39933
1.47325
1.5031
1.51238
-0.772478
-0.76448
-0.724038
-0.674353
-0.619049
-0.568528
-0.531203
-0.52657
-0.595788
-0.742007
-1.29797
-1.03121
-0.300018
0.24603
0.706769
1.00893
1.18856
1.25611
1.28914
1.30055
-0.708777
-0.702869
-0.666244
-0.620865
-0.569488
-0.521999
-0.485218
-0.476284
-0.532274
-0.67668
-0.998933
-0.744719
-0.178657
0.25093
0.590285
0.803837
0.925387
0.986976
1.02517
1.03883
-0.638185
-0.632011
-0.596975
-0.555057
-0.50771
-0.461864
-0.420917
-0.397085
-0.409924
-0.474489
-0.564777
-0.289951
0.0549986
0.327395
0.53149
0.648686
0.725165
0.773218
0.805557
0.818081
-0.542632
-0.53775
-0.510267
-0.475657
-0.433157
-0.389945
-0.346687
-0.30926
-0.285168
-0.278419
-0.245322
-0.0213901
0.18736
0.362138
0.479286
0.550177
0.598467
0.631057
0.652345
0.660092
-0.422283
-0.419965
-0.404332
-0.38097
-0.348703
-0.312733
-0.27269
-0.230426
-0.187359
-0.14217
-0.0649627
0.0997953
0.238581
0.350047
0.420738
0.466343
0.498378
0.51864
0.531364
0.53404
-0.306942
-0.306042
-0.298611
-0.28389
-0.26268
-0.236197
-0.203217
-0.163487
-0.114743
-0.0479878
0.0269351
0.1445
0.243115
0.312219
0.355505
0.384122
0.40373
0.415351
0.421017
0.422254
-0.203873
-0.203803
-0.200368
-0.192751
-0.180668
-0.163618
-0.139469
-0.106928
-0.0633733
-0.00165088
0.0696535
0.162154
0.225456
0.268787
0.295848
0.313522
0.325053
0.331769
0.335719
0.337439
-0.119973
-0.120676
-0.119385
-0.115807
-0.109571
-0.0997409
-0.0835267
-0.0589935
-0.0239237
0.0267477
0.087183
0.15532
0.198471
0.227585
0.245603
0.257226
0.264825
0.269727
0.272613
0.273227
-0.0579494
-0.0589316
-0.0593767
-0.058289
-0.0549114
-0.048777
-0.0379747
-0.0204897
0.00594885
0.0451964
0.0923872
0.141063
0.172216
0.193069
0.206041
0.214236
0.219338
0.222123
0.22308
0.222753
-0.0152444
-0.0161393
-0.0176743
-0.0183722
-0.0168922
-0.0127261
-0.00480601
0.00791009
0.0274429
0.0570664
0.0928619
0.127893
0.15078
0.166045
0.175443
0.180832
0.183505
0.184259
0.184031
0.183451
0.0124186
0.0117229
0.0100375
0.00832975
0.00829387
0.0106849
0.0165243
0.0264944
0.0416632
0.064208
0.0911581
0.116594
0.133476
0.144587
0.151121
0.154326
0.155297
0.154856
0.15413
0.153563
0.0289253
0.0284152
0.0270561
0.0253882
0.0246426
0.0255016
0.0293144
0.0369285
0.0490167
0.0666463
0.0872994
0.10608
0.118618
0.126634
0.131004
0.132804
0.13302
0.132308
0.131609
0.131118
0.0381792
0.0377877
0.0368815
0.035781
0.0351335
0.0352622
0.037514
0.0426977
0.0518325
0.065535
0.0816196
0.0957844
0.105155
0.110908
0.113872
0.114976
0.115057
0.114543
0.114056
0.113671
0.0438708
0.0435649
0.0430235
0.0424057
0.0421124
0.0422687
0.043739
0.0470064
0.0533425
0.0634078
0.0756101
0.086191
0.0930996
0.097231
0.0993813
0.100188
0.100268
0.0999285
0.0996095
0.0993242
0.0479526
0.0477265
0.0473454
0.0468525
0.0466292
0.0468791
0.0480477
0.0503025
0.054603
0.0615578
0.0702864
0.0778836
0.0828495
0.0858283
0.0874252
0.0880029
0.0879914
0.0876696
0.0874201
0.0872062
0.0502881
0.0501093
0.0497401
0.0491451
0.0487329
0.0487951
0.0496197
0.0513629
0.054493
0.0593759
0.0654683
0.0707918
0.0743256
0.0764577
0.0775661
0.0778943
0.0777543
0.0774007
0.077172
0.0770041
0.0504332
0.0502816
0.0499125
0.0492581
0.048715
0.0485249
0.048901
0.050138
0.0524761
0.0561387
0.0605842
0.0644096
0.0669429
0.0684293
0.0691266
0.0692639
0.0690666
0.0687257
0.0685255
0.0683902
0.0487817
0.0486601
0.0483487
0.0477692
0.0472697
0.0469871
0.0470504
0.0477939
0.0494071
0.0521433
0.055485
0.058324
0.0601511
0.0611744
0.0615985
0.0616406
0.061452
0.0611638
0.0610044
0.0608987
0.0461081
0.0460206
0.0457897
0.0453324
0.0449498
0.0446986
0.044655
0.0450873
0.0461087
0.0480259
0.0504437
0.0525035
0.053795
0.054499
0.0547632
0.0547665
0.0546071
0.0543758
0.0542527
0.054172
0.042841
0.0427805
0.042609
0.0422496
0.0419559
0.0417446
0.0416765
0.0419562
0.0425982
0.0438927
0.0455527
0.0469804
0.0478641
0.0483408
0.0485002
0.0484781
0.0483405
0.0481529
0.0480548
0.0479929
0.0390893
0.0390437
0.0389073
0.0386211
0.0383838
0.0381938
0.0381048
0.0382861
0.0387005
0.0395934
0.0407203
0.0416956
0.0422923
0.042605
0.042686
0.0426398
0.0425139
0.0423564
0.0422748
0.0422267
0.034972
0.0349371
0.0348261
0.0345996
0.0344052
0.0342374
0.0341332
0.0342347
0.0344959
0.0351233
0.0359004
0.0365722
0.0369658
0.037158
0.037187
0.0371294
0.0370186
0.0368896
0.0368216
0.0367837
0.0305983
0.0305717
0.0304851
0.030315
0.0301607
0.0300215
0.0299181
0.0299624
0.0301142
0.030539
0.0310738
0.0315357
0.0317892
0.031905
0.0319071
0.0318497
0.0317559
0.0316519
0.0315967
0.0315668
0.0260717
0.0260517
0.0259852
0.0258602
0.0257408
0.0256308
0.0255409
0.0255534
0.0256341
0.0259101
0.0262647
0.0265733
0.0267356
0.0268004
0.0267837
0.0267261
0.026645
0.0265593
0.0265145
0.0264922
0.0214503
0.0214356
0.0213858
0.0212953
0.021204
0.0211197
0.0210469
0.0210453
0.0210839
0.0212581
0.021483
0.0216779
0.0217737
0.0218042
0.0217797
0.0217272
0.0216603
0.0215928
0.0215573
0.0215402
0.0167675
0.0167563
0.0167169
0.0166481
0.0165762
0.0165107
0.0164506
0.0164376
0.0164515
0.0165598
0.0167049
0.0168259
0.0168781
0.0168887
0.0168619
0.0168169
0.0167631
0.0167099
0.0166813
0.0166673
0.0120265
0.0120197
0.0119914
0.011942
0.0118892
0.0118409
0.0117951
0.0117792
0.0117797
0.0118409
0.0119266
0.0119968
0.012023
0.0120224
0.011996
0.0119592
0.0119182
0.0118787
0.0118581
0.011849
0.00724065
0.00723536
0.00721703
0.00718686
0.00715439
0.00712468
0.00709603
0.00708495
0.00707995
0.00711295
0.00715803
0.00719549
0.00720317
0.00719687
0.00717845
0.00715445
0.00712691
0.00709969
0.00708566
0.00707905
0.00242891
0.00242679
0.00241733
0.00240219
0.00238812
0.00237727
0.0023651
0.00236231
0.00235983
0.00237197
0.00238555
0.002399
0.00240116
0.00239833
0.00239106
0.00238183
0.00236932
0.00235463
0.00234778
0.00234443
-1.65115
-0.70172
-0.424225
-0.116648
0.0940398
0.277556
0.433788
0.592832
0.761705
0.840715
-0.57954
-0.12287
-0.0810167
0.125597
0.274413
0.407664
0.524668
0.62724
0.664875
0.617829
-0.141269
0.100081
0.157642
0.302446
0.407375
0.501869
0.580427
0.638929
0.647126
0.657177
0.125353
0.28957
0.330313
0.446074
0.513157
0.580543
0.632486
0.668839
0.680491
0.702753
0.328733
0.443109
0.472148
0.55635
0.602124
0.650494
0.6866
0.712908
0.724364
0.75464
0.484202
0.5632
0.593746
0.646195
0.684455
0.718151
0.744811
0.766212
0.781587
0.809149
0.613421
0.669342
0.696478
0.728651
0.758893
0.784455
0.80584
0.825745
0.841439
0.867595
0.72334
0.76369
0.786022
0.808315
0.830874
0.851579
0.86992
0.888886
0.904136
0.927495
0.821634
0.851613
0.869436
0.885533
0.902715
0.919611
0.935804
0.95327
0.966763
0.989044
0.912395
0.933774
0.949205
0.962883
0.976912
0.991018
1.00458
1.01925
1.03099
1.05079
0.999678
1.01569
1.02976
1.04179
1.05402
1.06583
1.07702
1.08889
1.09657
1.11347
1.08507
1.0981
1.11214
1.12409
1.1349
1.14484
1.15366
1.1619
1.16541
1.17659
1.17489
1.18594
1.19963
1.20902
1.21654
1.22363
1.23072
1.23731
1.23826
1.24555
1.27358
1.27836
1.28636
1.29074
1.29395
1.29843
1.30446
1.31223
1.3162
1.32613
1.38682
1.37302
1.36557
1.35988
1.35715
1.35853
1.3651
1.37771
1.39253
1.42216
1.50761
1.45206
1.42111
1.40408
1.39597
1.39602
1.40472
1.42404
1.45588
1.52505
)
;

boundaryField
{
    wall-4
    {
        type            zeroGradient;
    }
    pressure-outlet-7
    {
        type            fixedValue;
        value           uniform 0;
    }
    velocity-inlet-6
    {
        type            zeroGradient;
    }
    velocity-inlet-5
    {
        type            zeroGradient;
    }
    frontAndBackPlanes
    {
        type            empty;
    }
}


// ************************************************************************* //
