/*--------------------------------*- C++ -*----------------------------------*\
| =========                 |                                                 |
| \\      /  F ield         | OpenFOAM: The Open Source CFD Toolbox           |
|  \\    /   O peration     | Version:  v2012                                 |
|   \\  /    A nd           | Website:  www.openfoam.com                      |
|    \\/     M anipulation  |                                                 |
\*---------------------------------------------------------------------------*/
FoamFile
{
    version     2.0;
    format      ascii;
    class       surfaceScalarField;
    location    "13";
    object      phi;
}
// * * * * * * * * * * * * * * * * * * * * * * * * * * * * * * * * * * * * * //

dimensions      [0 3 -1 0 0 0 0];
oriented        oriented;


internalField   nonuniform List<scalar> 
4262
(
0.106736
0.471252
0.0951116
0.70521
0.0689903
0.858424
0.0471387
1.02062
0.0306923
1.21496
0.0194431
1.44947
0.0122167
1.73309
0.00729543
2.07596
0.00347439
2.48906
-0.000224001
2.98599
-0.00392464
2.98599
-0.00768521
2.489
-0.0124724
2.07582
-0.0195922
1.73298
-0.0307916
1.44942
-0.0472351
1.21496
-0.0690808
1.02061
-0.0951704
0.858393
-0.106773
0.705189
0.471215
0.1126
0.358652
0.134209
0.683601
0.119179
0.873454
0.0969349
1.04286
0.0743157
1.23758
0.0528326
1.47095
0.0345522
1.75137
0.0203345
2.09018
0.00899026
2.50041
-0.000558525
2.99554
-0.0100903
2.99552
-0.0212814
2.5002
-0.0354757
2.09002
-0.0537656
1.75127
-0.0751564
1.47081
-0.0975992
1.2374
-0.119664
1.04267
-0.134558
0.873287
-0.112785
0.683416
0.35843
0.0910931
0.267559
0.122927
0.651768
0.117752
0.878629
0.100425
1.06019
0.0821229
1.25588
0.0634486
1.48963
0.0447806
1.77004
0.0274686
2.10749
0.0126993
2.51518
-0.00104386
3.00928
-0.0148276
3.00931
-0.0295255
2.51489
-0.0466623
2.10715
-0.0649865
1.7696
-0.0833072
1.48913
-0.101364
1.25546
-0.118531
1.05984
-0.123489
0.878245
-0.0913569
0.651284
0.267073
0.0602966
0.207263
0.0994466
0.612618
0.100305
0.87777
0.0881136
1.07238
0.0732515
1.27075
0.0599689
1.50291
0.0460579
1.78395
0.0310504
2.12249
0.0154643
2.53076
-0.00172016
3.02647
-0.0185821
3.02617
-0.0337556
2.53007
-0.0482593
2.12166
-0.0617982
1.78314
-0.0748003
1.50213
-0.0893948
1.27005
-0.101314
1.07176
-0.100136
0.877067
-0.0605794
0.611727
0.206494
0.0331289
0.174134
0.0723882
0.573358
0.082048
0.868111
0.0753586
1.07907
0.0632986
1.28281
0.051517
1.51469
0.0399061
1.79556
0.0277857
2.13462
0.0142181
2.54433
-0.00226471
3.04295
-0.0184
3.04231
-0.0313797
2.54305
-0.0430807
2.13336
-0.054344
1.7944
-0.0656688
1.51346
-0.0773375
1.28172
-0.0835612
1.07798
-0.0733945
0.8669
-0.0334824
0.571815
0.173011
0.0145447
0.159589
0.0443515
0.543551
0.0575395
0.854923
0.0570055
1.0796
0.0504079
1.2894
0.0414665
1.52363
0.0322019
1.80482
0.0222904
2.14453
0.0107047
2.55592
-0.00293773
3.05659
-0.0164472
3.05582
-0.0276155
2.55421
-0.0367759
2.14252
-0.0452181
1.80284
-0.0535217
1.52176
-0.0594612
1.28766
-0.059323
1.07785
-0.0454376
0.853015
-0.0149605
0.541337
0.158051
0.00384417
0.155745
0.0215854
0.52581
0.0332665
0.843242
0.0369595
1.07591
0.0365702
1.28979
0.03297
1.52723
0.0271629
1.81063
0.0188772
2.15281
0.00840119
2.56639
-0.00363221
3.06863
-0.015473
3.06766
-0.0253085
2.56405
-0.0325807
2.14979
-0.0371581
1.80742
-0.0398497
1.52445
-0.0394526
1.28727
-0.0350712
1.07346
-0.0226252
0.840569
-0.00427206
0.522984
0.153779
-0.0011694
0.156914
0.0063848
0.518256
0.0147417
0.834885
0.0204002
1.07025
0.0240045
1.28619
0.0244867
1.52675
0.0216168
1.8135
0.0155184
2.15891
0.00647906
2.57543
-0.00464635
3.07975
-0.0152568
3.07827
-0.0233033
2.5721
-0.028043
2.15453
-0.0298409
1.80922
-0.028324
1.52294
-0.0237372
1.28268
-0.017181
1.06691
-0.00789051
0.831279
0.000638989
0.514455
0.154418
-0.00179285
0.158707
0.000750252
0.515713
0.00642073
0.829214
0.0122214
1.06445
0.0167581
1.28165
0.018441
1.52507
0.016944
1.815
0.0123024
2.16355
0.00449934
2.58324
-0.00583502
3.09009
-0.0156869
3.08812
-0.0226404
2.57905
-0.0262467
2.15814
-0.0263793
1.80935
-0.0230272
1.51958
-0.0170479
1.2767
-0.00987107
1.05973
-0.0027644
0.824172
0.00103532
0.510655
0.155453
-0.000660084
0.159367
0.000430809
0.514622
0.0046932
0.824952
0.0099218
1.05922
0.0138663
1.27771
0.0149
1.52403
0.0131063
1.81679
0.00858694
2.16807
0.00146742
2.59036
-0.00777861
3.09933
-0.0164925
3.09683
-0.0219178
2.58448
-0.0245802
2.1608
-0.024279
1.80905
-0.021435
1.51674
-0.0157419
1.27101
-0.00883528
1.05282
-0.0028863
0.818223
-0.000171686
0.50794
0.155281
-0.000393699
0.159761
-0.000163858
0.514392
0.00310346
0.821684
0.00757286
1.05475
0.0110052
1.27428
0.0118467
1.52319
0.00983984
1.8188
0.00522721
2.17268
-0.00160668
2.59719
-0.00995611
3.10768
-0.0174489
3.10432
-0.0217137
2.58874
-0.023577
2.16266
-0.023095
1.80857
-0.0199524
1.5136
-0.0143558
1.26541
-0.00793319
1.0464
-0.00293066
0.81322
-0.000697631
0.505707
0.154584
-0.000896229
0.160657
-0.0014653
0.514961
9.8788e-05
0.82012
0.00329631
1.05155
0.00591008
1.27166
0.00669914
1.5224
0.00511936
1.82038
0.00113729
2.17667
-0.00494673
2.60327
-0.0122879
3.11502
-0.0184167
3.11045
-0.0219751
2.5923
-0.0226363
2.16332
-0.0211387
1.80707
-0.017253
1.50971
-0.0118782
1.26003
-0.00622992
1.04075
-0.00219618
0.809187
-0.00053039
0.504042
0.154053
-0.0012374
0.161895
-0.00263842
0.516362
-0.00259503
0.820077
-0.00107411
1.05003
0.000358115
1.27023
0.000617384
1.52214
-0.000901407
1.8219
-0.00427307
2.18004
-0.00926429
2.60826
-0.0152784
3.12104
-0.0198418
3.11502
-0.0218871
2.59434
-0.0213163
2.16275
-0.0188834
1.80464
-0.0149498
1.50578
-0.0101823
1.25527
-0.00548189
1.03605
-0.0021492
0.805854
-0.000585855
0.502478
0.153468
-0.00129398
0.163189
-0.00322954
0.518298
-0.0038537
0.820701
-0.00377154
1.04995
-0.00379217
1.27025
-0.00467579
1.52303
-0.00675824
1.82398
-0.0101134
2.18339
-0.0145158
2.61267
-0.0193075
3.12583
-0.0224156
3.11813
-0.0228065
2.59473
-0.0212432
2.16119
-0.0180858
1.80148
-0.014167
1.50186
-0.00992167
1.25102
-0.00595135
1.03208
-0.00291006
0.802813
-0.000981158
0.500549
0.152486
-0.00151523
0.164704
-0.00391965
0.520702
-0.00552146
0.822303
-0.00668614
1.05111
-0.00805353
1.27162
-0.0100144
1.52499
-0.0127676
1.82673
-0.0163388
2.18696
-0.0204149
2.61674
-0.0241259
3.12954
-0.0257023
3.1197
-0.0247006
2.59373
-0.0223436
2.15883
-0.0187931
1.79793
-0.0147903
1.49786
-0.0107229
1.24695
-0.00696778
1.02833
-0.00381139
0.799656
-0.00137057
0.498109
0.151116
-0.00186191
0.166566
-0.00487549
0.523716
-0.00738215
0.82481
-0.00950332
1.05324
-0.0120322
1.27415
-0.0152024
1.52816
-0.0190141
1.83055
-0.0232638
2.19121
-0.0274525
2.62093
-0.0304558
3.13254
-0.0306573
3.1199
-0.0284509
2.59153
-0.0248376
2.15522
-0.0205122
1.7936
-0.0160257
1.49337
-0.0117606
1.24269
-0.00791994
1.02449
-0.00452025
0.796257
-0.00163033
0.495219
0.149486
-0.00259975
0.169165
-0.00675043
0.527867
-0.0105705
0.82863
-0.0140746
1.05674
-0.0177512
1.27782
-0.0218874
1.53229
-0.0264631
1.83512
-0.0312644
2.19602
-0.0355922
2.62526
-0.0380857
3.13504
-0.037087
3.1189
-0.0336468
2.58809
-0.0288953
2.15047
-0.0237883
1.7885
-0.0187854
1.48837
-0.0141226
1.23803
-0.00980878
1.02017
-0.00571872
0.792167
-0.00206718
0.491567
0.147418
-0.00313948
0.172305
-0.00814744
0.532874
-0.0127869
0.833269
-0.0173944
1.06135
-0.0226486
1.28308
-0.0285723
1.53822
-0.0349065
1.84146
-0.0410847
2.20219
-0.0461343
2.63031
-0.0483748
3.13728
-0.0461671
3.1167
-0.0411739
2.58309
-0.0349095
2.1442
-0.0283705
1.78196
-0.0221423
1.48214
-0.016504
1.23239
-0.0114665
1.01514
-0.00676279
0.787463
-0.00246532
0.48727
0.144953
-0.00438194
0.176687
-0.0113869
0.539879
-0.0178717
0.839754
-0.024015
1.06749
-0.0305003
1.28956
-0.037631
1.54535
-0.0452235
1.84905
-0.0526175
2.20959
-0.0584402
2.63613
-0.0605343
3.13937
-0.0571644
3.11333
-0.0505553
2.57648
-0.0427342
2.13638
-0.0349287
1.77415
-0.0277003
1.47491
-0.0211802
1.22587
-0.0150877
1.00904
-0.00895908
0.781334
-0.00322574
0.481536
0.141727
-0.00530576
0.181993
-0.0135371
0.548111
-0.0214965
0.847713
-0.0295986
1.07559
-0.0387405
1.2987
-0.0485895
1.5552
-0.058678
1.85914
-0.0679314
2.21884
-0.0747377
2.64294
-0.0765321
3.14116
-0.0716369
3.10843
-0.0629824
2.56783
-0.0529617
2.12636
-0.0429085
1.7641
-0.0335323
1.46553
-0.0250909
1.21743
-0.0175093
1.00146
-0.0103573
0.774182
-0.00378083
0.47496
0.137946
-0.00761225
0.189605
-0.0193561
0.559855
-0.0299309
0.858288
-0.0399622
1.08562
-0.0508159
1.30956
-0.062771
1.56715
-0.0751116
1.87148
-0.0864565
2.23019
-0.0944537
2.65094
-0.0959161
3.14263
-0.0892156
3.10173
-0.0781301
2.55674
-0.0656415
2.11387
-0.0534191
1.75188
-0.0422681
1.45438
-0.0323715
1.20753
-0.0231668
0.992257
-0.013803
0.764818
-0.00491805
0.466075
0.133028
-0.00937555
0.19898
-0.0234353
0.573914
-0.0370744
0.871927
-0.0508143
1.09936
-0.0661053
1.32485
-0.0820026
1.58305
-0.0976022
1.88708
-0.111139
2.24372
-0.119927
2.65972
-0.120422
3.14312
-0.111189
3.0925
-0.0971165
2.54267
-0.08157
2.09833
-0.0662734
1.73658
-0.0520337
1.44014
-0.0390826
1.19458
-0.027257
0.980431
-0.0159621
0.753524
-0.00573658
0.455849
0.127292
-0.0145073
0.213488
-0.0349878
0.594395
-0.0526913
0.889631
-0.0696499
1.11632
-0.0879868
1.34319
-0.107409
1.60247
-0.12626
1.90593
-0.141856
2.25932
-0.151076
2.66894
-0.149956
3.142
-0.137559
3.0801
-0.119836
2.52495
-0.100589
2.07908
-0.081857
1.71785
-0.0647338
1.42302
-0.0496136
1.17946
-0.0355626
0.96638
-0.021213
0.739174
-0.00748213
0.442118
0.11981
-0.0181259
0.231614
-0.0439192
0.620188
-0.0685803
0.914292
-0.0926835
1.14043
-0.117937
1.36844
-0.142521
1.62706
-0.164702
1.92811
-0.181946
2.27656
-0.190706
2.6777
-0.186862
3.13816
-0.17028
3.06352
-0.148327
2.503
-0.125093
2.05585
-0.102565
1.69532
-0.0813754
1.40183
-0.0615419
1.15963
-0.0428993
0.947737
-0.0248669
0.721142
-0.00844453
0.425696
0.111365
-0.0335393
0.265153
-0.070856
0.657505
-0.101954
0.94539
-0.131918
1.17039
-0.161824
1.39835
-0.190258
1.65549
-0.214597
1.95245
-0.231682
2.29365
-0.237974
2.68399
-0.229741
3.12993
-0.207768
3.04155
-0.180684
2.47591
-0.152559
2.02772
-0.125428
1.66819
-0.100606
1.37701
-0.0781995
1.13722
-0.0565754
0.926113
-0.0340256
0.698592
-0.0112115
0.402882
0.100154
-0.0455449
0.310698
-0.105324
0.717284
-0.150455
0.990521
-0.189372
1.20931
-0.224764
1.43374
-0.255448
1.68618
-0.279498
1.9765
-0.293788
2.30794
-0.29545
2.68566
-0.280882
3.11536
-0.252515
3.01318
-0.220207
2.4436
-0.187735
1.99525
-0.156708
1.63716
-0.127549
1.34785
-0.100213
1.10988
-0.0729422
0.898843
-0.0415775
0.667227
-0.0126354
0.37394
0.0875184
-0.0285152
0.339213
-0.0771303
0.765899
-0.122518
1.03591
-0.166377
1.25317
-0.207953
1.47531
-0.247532
1.72575
-0.2827
2.01166
-0.311272
2.33651
-0.329403
2.70379
-0.32991
3.11587
-0.309455
2.99272
-0.276261
2.41041
-0.236237
1.95523
-0.193293
1.59422
-0.149772
1.30433
-0.106704
1.06681
-0.0654926
0.857632
-0.0298695
0.631604
-0.006381
0.350451
0.0811374
-0.00206004
0.341273
-0.0268772
0.790716
-0.0611473
1.07018
-0.0994192
1.29144
-0.137005
1.5129
-0.172553
1.7613
-0.204449
2.04356
-0.230113
2.36217
-0.244962
2.71864
-0.242651
3.11355
-0.220635
2.97071
-0.187635
2.37741
-0.149695
1.91729
-0.110579
1.5551
-0.0730877
1.26684
-0.0389544
1.03268
-0.00933947
0.828017
0.00821993
0.614045
0.00787766
0.350794
0.089015
0.00383061
0.337442
-0.00982775
0.804375
-0.0345497
1.0949
-0.0637223
1.32061
-0.0942855
1.54346
-0.12449
1.79151
-0.152421
2.07149
-0.174959
2.38471
-0.187554
2.73123
-0.18479
3.11079
-0.164927
2.95084
-0.136617
2.3491
-0.105565
1.88624
-0.0748902
1.52442
-0.0461609
1.23811
-0.0209845
1.0075
-0.00171988
0.808752
0.0084026
0.603922
0.00658466
0.352612
0.0955997
0.00592851
0.331514
-0.00364476
0.813948
-0.0230493
1.11431
-0.0462246
1.34379
-0.0701858
1.56742
-0.0952815
1.8166
-0.119291
2.0955
-0.138983
2.4044
-0.150363
2.74261
-0.148593
3.10902
-0.132024
2.93428
-0.108549
2.32563
-0.083416
1.8611
-0.05917
1.50018
-0.0367088
1.21565
-0.01697
0.987766
-0.00173085
0.793513
0.00499173
0.5972
0.00359474
0.354009
0.0991944
0.00756765
0.323946
0.000930162
0.820585
-0.0166401
1.13188
-0.0361453
1.36329
-0.0566477
1.58792
-0.0782133
1.83817
-0.0991084
2.1164
-0.116574
2.42187
-0.127208
2.75324
-0.126284
3.1081
-0.11243
2.92042
-0.0929125
2.30611
-0.0718598
1.84005
-0.0515516
1.47987
-0.0332606
1.19736
-0.0176982
0.972204
-0.00620899
0.782024
0.000232969
0.590758
0.000563378
0.353678
0.0997578
0.00668865
0.317258
0.0023889
0.824885
-0.0127045
1.14697
-0.0306273
1.38121
-0.0493927
1.60669
-0.0686153
1.85739
-0.0872728
2.13505
-0.103098
2.4377
-0.113243
2.76339
-0.113116
3.10797
-0.101022
2.90833
-0.0832158
2.2883
-0.0645176
1.82135
-0.0471744
1.46253
-0.0319337
1.18211
-0.0191223
0.959392
-0.00970848
0.77261
-0.00362193
0.584671
-0.000742302
0.350799
0.0990155
0.00462482
0.312633
0.00192867
0.827581
-0.0112947
1.16019
-0.0277547
1.39767
-0.0453772
1.62431
-0.0632407
1.87525
-0.0804643
2.15228
-0.0953495
2.45258
-0.105513
2.77355
-0.106404
3.10886
-0.0962392
2.89816
-0.0809033
2.27297
-0.0639388
1.80439
-0.0478041
1.44639
-0.0337415
1.16805
-0.021951
0.947602
-0.0126976
0.763357
-0.00596561
0.577939
-0.00165038
0.346483
0.0973651
0.00222496
0.310408
-8.58816e-05
0.829892
-0.0117611
1.17187
-0.0265241
1.41244
-0.0430128
1.6408
-0.060055
1.8923
-0.0765807
2.1688
-0.091204
2.4672
-0.101627
2.78398
-0.103448
3.11068
-0.0941095
2.88882
-0.079078
2.25793
-0.0634704
1.78878
-0.0485602
1.43148
-0.0354202
1.15491
-0.02416
0.936341
-0.0147532
0.75395
-0.00734626
0.570532
-0.00216318
0.3413
0.0952019
9.28092e-05
0.310315
-0.00330915
0.833294
-0.013383
1.18194
-0.0264269
1.42548
-0.041689
1.65606
-0.0580213
1.90863
-0.0742537
2.18504
-0.0891894
2.48214
-0.100573
2.79536
-0.104434
3.11454
-0.097472
2.88186
-0.0840129
2.24448
-0.067927
1.77269
-0.0528757
1.41643
-0.0390672
1.1411
-0.0270259
0.9243
-0.0173358
0.74426
-0.00927729
0.562474
-0.00288086
0.334904
0.0923211
-0.00123016
0.311545
-0.00607004
0.838134
-0.0153297
1.1912
-0.0272138
1.43737
-0.0413253
1.67017
-0.0569147
1.92422
-0.0729725
2.20109
-0.088547
2.49771
-0.101178
2.80799
-0.106673
3.12004
-0.100863
2.87605
-0.0880965
2.23171
-0.0729091
1.75751
-0.0567402
1.40026
-0.042599
1.12696
-0.0306469
0.912348
-0.0195121
0.733125
-0.0103445
0.553306
-0.0034193
0.327979
0.0889018
-0.00307582
0.314621
-0.00789163
0.84295
-0.0167891
1.2001
-0.0281005
1.44868
-0.0414873
1.68356
-0.0564547
1.93919
-0.072348
2.21699
-0.0884196
2.51379
-0.102121
2.82169
-0.110049
3.12797
-0.106686
2.87269
-0.0942949
2.21932
-0.0783115
1.74152
-0.0630371
1.38499
-0.0482309
1.11216
-0.034414
0.898531
-0.0231288
0.72184
-0.012823
0.543
-0.00421441
0.31937
0.0846874
-0.0040243
0.318645
-0.00913749
0.848063
-0.0177275
1.20869
-0.028705
1.45965
-0.0416605
1.69652
-0.0561821
1.95371
-0.0719636
2.23277
-0.0885305
2.53035
-0.103816
2.83698
-0.114145
3.13829
-0.113438
2.87198
-0.103459
2.20934
-0.0874914
1.72556
-0.0691831
1.36668
-0.0521881
1.09516
-0.0379021
0.884245
-0.0249834
0.708921
-0.0136822
0.531699
-0.00474148
0.310429
0.0799459
-0.0042046
0.32285
-0.00979477
0.853653
-0.0181559
1.21705
-0.0288278
1.47033
-0.0414921
1.70918
-0.0557606
1.96798
-0.0716102
2.24862
-0.0887641
2.54751
-0.105456
2.85367
-0.118399
3.15124
-0.120647
2.87423
-0.111111
2.1998
-0.0949258
1.70937
-0.0766634
1.34842
-0.0598388
1.07834
-0.0446295
0.869036
-0.0302225
0.694514
-0.0165586
0.518035
-0.00549826
0.299369
0.0744476
-0.00411834
0.326968
-0.0101041
0.859639
-0.018264
1.22521
-0.028598
1.48066
-0.0409367
1.72152
-0.0550024
1.98204
-0.0709702
2.26459
-0.0885949
2.56513
-0.106511
2.87158
-0.122081
3.16681
-0.12717
2.87932
-0.120807
2.19344
-0.106728
1.69529
-0.0872466
1.32894
-0.0657457
1.05684
-0.0455805
0.848871
-0.0297801
0.678714
-0.0169333
0.505188
-0.00583593
0.288272
0.0686117
-0.00402207
0.33099
-0.0101803
0.865797
-0.0181268
1.23316
-0.0281112
1.49064
-0.0401003
1.73351
-0.0539431
1.99588
-0.0699545
2.2806
-0.0880104
2.58319
-0.107318
2.89089
-0.125527
3.18502
-0.134209
2.888
-0.12931
2.18854
-0.114041
1.68002
-0.0948167
1.30971
-0.0729158
1.03493
-0.0549343
0.830889
-0.0384697
0.662249
-0.0205945
0.487313
-0.00632474
0.274002
0.062287
-0.00391252
0.334903
-0.0100657
0.87195
-0.0177752
1.24087
-0.0273843
1.50025
-0.0389926
1.74512
-0.0525525
2.00944
-0.0685573
2.2966
-0.0870106
2.60164
-0.107503
2.91138
-0.127626
3.20514
-0.1393
2.89968
-0.138475
2.18771
-0.127969
1.66952
-0.106403
1.28815
-0.0828285
1.01136
-0.0559937
0.804054
-0.0330712
0.639327
-0.0171805
0.471422
-0.00467538
0.261497
0.0576116
-0.00377783
0.338681
-0.00986183
0.878034
-0.0172905
1.24829
-0.0265146
1.50948
-0.0377275
1.75633
-0.0509634
2.02268
-0.0668336
2.31247
-0.0854455
2.62025
-0.106781
2.93272
-0.129721
3.22808
-0.14648
2.91644
-0.150246
2.19148
-0.138982
1.65825
-0.120305
1.26947
-0.0938393
0.984894
-0.0660672
0.776282
-0.0404661
0.613725
-0.0188626
0.449819
-0.00379577
0.24643
0.0538158
-0.00358243
0.342263
-0.00945862
0.88391
-0.0165955
1.25543
-0.0254367
1.51832
-0.0362304
1.76712
-0.0490955
2.03555
-0.0647399
2.32812
-0.0834423
2.63895
-0.105524
2.9548
-0.130221
3.25278
-0.148995
2.93521
-0.155691
2.19818
-0.152733
1.65529
-0.136003
1.25274
-0.1067
0.95559
-0.0678234
0.737406
-0.0281716
0.574074
0.000797705
0.42085
0.0132408
0.233987
0.0670566
-0.00332824
0.345591
-0.00904431
0.889627
-0.0158591
1.26225
-0.0242932
1.52675
-0.0346429
1.77747
-0.0470937
2.048
-0.0624154
2.34344
-0.0810649
2.6576
-0.103706
2.97744
-0.130159
3.27923
-0.153052
2.9581
-0.164407
2.20953
-0.161185
1.65207
-0.146916
1.23847
-0.120633
0.929307
-0.0848482
0.701622
-0.0339658
0.523191
0.0114903
0.375393
0.0111272
0.23435
0.0781838
-0.00306203
0.348653
-0.00846156
0.895026
-0.014962
1.26875
-0.0229788
1.53477
-0.0329076
1.7874
-0.0449236
2.06001
-0.0598934
2.35841
-0.078385
2.6761
-0.101404
3.00046
-0.129199
3.30702
-0.154294
2.9832
-0.170502
2.22574
-0.177208
1.65878
-0.167994
1.22926
-0.14627
0.907583
-0.0979816
0.653333
-0.00899643
0.434206
0.10384
0.262557
0.147982
0.190208
0.226166
-0.00292209
0.351575
-0.00812626
0.90023
-0.014464
1.27508
-0.022365
1.54267
-0.0323116
1.79735
-0.0445611
2.07226
-0.0601395
2.37399
-0.0799105
2.69587
-0.105285
3.02584
-0.137323
3.33906
-0.169097
3.01497
-0.193586
2.25023
-0.202475
1.66767
-0.198515
1.2253
-0.181813
0.890881
-0.163725
0.635246
-0.184615
0.455096
-0.377743
0.455686
-0.896555
0.70902
0.881034
-1.55142
-0.0027177
0.354293
-0.00759321
0.905106
-0.0136801
1.28117
-0.0213382
1.55033
-0.0310643
1.80708
-0.0432372
2.08443
-0.0589874
2.38974
-0.0794265
2.71631
-0.106278
3.05269
-0.14164
3.37442
-0.178318
3.05165
-0.207934
2.27984
-0.237482
1.69722
-0.257034
1.24485
-0.272057
0.905904
-0.345381
0.70857
-0.674151
0.783866
-1.35746
1.139
-1.97647
1.32803
1.22558
-2.32102
-0.00248196
0.356775
-0.00709432
0.909718
-0.0129013
1.28698
-0.0202856
1.55771
-0.029757
1.81655
-0.0418029
2.09648
-0.0576218
2.40556
-0.0785312
2.73722
-0.106904
3.08106
-0.146019
3.41354
-0.190581
3.09621
-0.232041
2.3213
-0.263432
1.72861
-0.284302
1.26572
-0.371082
0.992685
-0.720172
1.05766
-1.45686
1.52056
-2.0578
1.73993
-2.31028
1.58051
1.34711
-2.4318
-0.00218421
0.358959
-0.0064485
0.913982
-0.0119575
1.29249
-0.019069
1.56482
-0.0282441
1.82572
-0.0401171
2.10835
-0.055944
2.42138
-0.0773602
2.75863
-0.107032
3.11073
-0.148648
3.45515
-0.198037
3.1456
-0.242158
2.36542
-0.296072
1.78252
-0.392052
1.3617
-0.683704
1.28434
-1.36859
1.74255
-1.98207
2.13403
-2.23479
1.99265
-2.35578
1.70149
1.41664
-2.42531
-0.00192137
0.360881
-0.00582983
0.917891
-0.0110112
1.29767
-0.0177892
1.5716
-0.0266854
1.83462
-0.0383425
2.12001
-0.0541011
2.43714
-0.0758162
2.78035
-0.106647
3.14156
-0.151399
3.49991
-0.20744
3.20164
-0.266983
2.42497
-0.326648
1.84219
-0.486241
1.52129
-1.01753
1.81562
-1.71783
2.44286
-2.07166
2.48786
-2.23379
2.15477
-2.32368
1.79139
1.48656
-2.3936
-0.00172198
0.362603
-0.00540684
0.921576
-0.0105314
1.30279
-0.017218
1.57829
-0.026152
1.84355
-0.037847
2.13171
-0.0537829
2.45308
-0.0760059
2.80257
-0.108132
3.17369
-0.155536
3.54731
-0.217173
3.26328
-0.277745
2.48554
-0.374124
1.93856
-0.716891
1.86406
-1.40942
2.50815
-1.92163
2.95506
-2.13831
2.70454
-2.25408
2.27054
-2.33558
1.87289
1.55429
-2.4033
-0.00161778
0.36422
-0.00538955
0.925347
-0.0106808
1.30808
-0.0176065
1.58521
-0.026813
1.85276
-0.0388646
2.14376
-0.0553051
2.46952
-0.078389
2.82565
-0.11209
3.20739
-0.162889
3.59811
-0.228899
3.32929
-0.303983
2.56062
-0.473914
2.10849
-0.952549
2.34269
-1.5953
3.1509
-1.91564
3.27541
-2.07756
2.86646
-2.20061
2.3936
-2.29884
1.97111
1.6234
-2.36795
-0.00140157
0.365622
-0.00520227
0.929148
-0.0106958
1.31358
-0.0179176
1.59244
-0.0273785
1.86222
-0.0397735
2.15615
-0.056686
2.48643
-0.0805023
2.84947
-0.115569
3.24246
-0.168763
3.6513
-0.239735
3.40026
-0.330831
2.65172
-0.576324
2.35399
-1.1648
2.93117
-1.69403
3.68013
-1.91618
3.49755
-2.07224
3.02253
-2.2174
2.53875
-2.34629
2.1
1.69264
-2.41553
-0.00118378
0.366806
-0.00505598
0.93302
-0.0107077
1.31923
-0.0182156
1.59994
-0.0279264
1.87193
-0.0406145
2.16884
-0.0579453
2.50376
-0.0824697
2.87399
-0.118794
3.27878
-0.174955
3.70746
-0.248603
3.47391
-0.363002
2.76612
-0.686374
2.67736
-1.29131
3.53611
-1.69841
4.08722
-1.89997
3.69911
-2.0275
3.15006
-2.14272
2.65397
-2.22799
2.18528
1.69137
-2.22671
-0.000855406
0.367661
-0.00463934
0.936804
-0.0104799
1.32507
-0.0183016
1.60777
-0.0282244
1.88185
-0.041194
2.18181
-0.0589552
2.52152
-0.0841373
2.89918
-0.121522
3.31617
-0.179731
3.76567
-0.258818
3.553
-0.407434
2.91473
-0.796362
3.06629
-1.35413
4.09388
-1.65941
4.3925
-1.85191
3.89161
-1.97045
3.2686
-1.98802
2.67155
-1.95421
2.15146
1.70622
-1.96906
-0.000550394
0.368212
-0.0042605
0.940514
-0.0101459
1.33096
-0.0182039
1.61582
-0.0281521
1.8918
-0.0410925
2.19475
-0.0587712
2.5392
-0.0837634
2.92417
-0.12087
3.35327
-0.178982
3.82379
-0.259769
3.63378
-0.427333
3.0823
-0.836724
3.47568
-1.31072
4.56787
-1.52755
4.60933
-1.62533
3.9894
-1.6594
3.30267
-1.53608
2.54823
-1.06038
1.67576
0.645839
-9.08826e-05
0.368303
-0.00335316
0.943777
-0.00943995
1.33704
-0.0178089
1.62419
-0.027986
1.90198
-0.0414638
2.20823
-0.0600248
2.55776
-0.0865473
2.95069
-0.126114
3.39284
-0.189548
3.88722
-0.283504
3.72774
-0.487326
3.28612
-0.949525
3.93788
-1.36434
4.98269
-1.49889
4.74388
-1.51965
4.01016
-1.44737
3.23039
-1.24193
2.34279
-0.693297
1.12713
-0.0474578
0.000531784
0.367771
-0.00220778
0.946516
-0.00836963
1.3432
-0.0169359
1.63276
-0.0271814
1.91222
-0.0410585
2.22211
-0.0603533
2.57706
-0.0880972
2.97843
-0.130189
3.43493
-0.197012
3.95404
-0.298534
3.82926
-0.53629
3.52387
-1.02809
4.42967
-1.3669
5.3215
-1.45948
4.83646
-1.46559
4.01627
-1.31162
3.07641
-0.859881
1.89105
-0.149207
0.416455
-0.196664
0.00139672
0.366374
-0.000446345
0.948359
-0.00688802
1.34965
-0.015299
1.64117
-0.0253969
1.92232
-0.0394274
2.23614
-0.0589356
2.59656
-0.0875083
3.00701
-0.131707
3.47913
-0.204027
4.02636
-0.320702
3.94594
-0.593324
3.7965
-1.08958
4.92593
-1.33621
5.56813
-1.39236
4.8926
-1.35466
3.97858
-1.09296
2.81471
-0.423334
1.22142
0.0205759
-0.0274542
-0.176088
0.00217787
0.364196
0.00120026
0.949337
-0.00474211
1.35559
-0.0126959
1.64912
-0.0225679
1.93219
-0.0366069
2.25018
-0.0556819
2.61564
-0.084535
3.03586
-0.129982
3.52458
-0.206898
4.10328
-0.337328
4.07637
-0.626355
4.08552
-1.10101
5.40059
-1.28122
5.74834
-1.31479
4.92616
-1.19965
3.86344
-0.829975
2.44504
-0.164379
0.555828
0.0170878
-0.208921
-0.159001
0.00316635
0.36103
0.0030102
0.949493
-0.00202861
1.36063
-0.0088046
1.6559
-0.0181423
1.94153
-0.0315025
2.26354
-0.0497706
2.63391
-0.0783378
3.06443
-0.124482
3.57072
-0.201871
4.18067
-0.35171
4.22621
-0.66046
4.39427
-1.07631
5.81644
-1.1928
5.86483
-1.20547
4.93884
-1.00758
3.66555
-0.492709
1.93017
-0.0135436
0.0766631
0.0185018
-0.240966
-0.140499
0.00430734
0.356722
0.00558882
0.948212
0.00209897
1.36412
-0.00331623
1.66132
-0.0121376
1.95035
-0.0236176
2.27502
-0.0397718
2.65006
-0.066704
3.09136
-0.111206
3.61522
-0.188262
4.25772
-0.342261
4.3802
-0.651338
4.70335
-0.994543
6.15964
-1.08019
5.95048
-1.07382
4.93247
-0.839778
3.4315
-0.286976
1.37737
-0.0470237
-0.163289
-0.0155552
-0.272434
-0.156054
0.00588661
0.350836
0.00908903
0.945009
0.00766989
1.36554
0.00359054
1.66539
-0.00346054
1.9574
-0.0115753
2.28313
-0.0250315
2.66352
-0.0494485
3.11578
-0.0907663
3.65654
-0.174963
4.34192
-0.338953
4.54419
-0.601845
4.96624
-0.844243
6.40204
-0.897186
6.00342
-0.867568
4.90285
-0.66579
3.22973
-0.177115
0.888694
-0.0888994
-0.251505
-0.0356733
-0.32566
-0.191727
0.00739463
0.343441
0.0128052
0.939599
0.0135024
1.36484
0.0117096
1.66719
0.00865704
1.96046
0.00403037
2.28776
-0.00604936
2.6736
-0.0265978
3.13633
-0.0689802
3.69892
-0.167399
4.44034
-0.332587
4.70938
-0.535451
5.16911
-0.692284
6.55887
-0.73226
6.0434
-0.726717
4.8973
-0.588303
3.09131
-0.297654
0.598046
-0.227347
-0.321813
-0.108804
-0.444204
-0.300531
0.00937461
0.334067
0.017788
0.931185
0.0216426
1.36098
0.0241768
1.66465
0.0251859
1.95945
0.0260087
2.28693
0.0234664
2.67614
0.0104658
3.14933
-0.0294241
3.73881
-0.131668
4.54258
-0.255183
4.8329
-0.356432
5.27036
-0.427697
6.63014
-0.464515
6.08022
-0.467991
4.90078
-0.410094
3.03341
-0.456139
0.644091
-0.372768
-0.405184
-0.186462
-0.63051
-0.486993
0.0109355
0.323131
0.0222925
0.919828
0.0302054
1.35307
0.0374689
1.65739
0.0444519
1.95246
0.0539544
2.27743
0.0643259
2.66577
0.070513
3.14314
0.0558389
3.75349
-0.0272125
4.62563
-0.125194
4.93088
-0.1609
5.30606
-0.155893
6.62513
-0.108762
6.03309
-0.069522
4.86154
-0.0765987
3.04049
-0.325066
0.892558
-0.394101
-0.336149
-0.19811
-0.826501
-0.685103
0.0130554
0.310076
0.0282778
0.904606
0.0414353
1.33991
0.0550194
1.64381
0.0701372
1.93735
0.0904682
2.2571
0.116943
2.63929
0.150137
3.10995
0.190183
3.71344
0.19655
4.61927
0.0854355
5.04199
0.10277
5.28873
0.311596
6.41631
0.518841
5.82584
0.766304
4.61408
0.707084
3.09971
0.304586
1.29506
0.0134065
-0.0449696
-0.0500775
-0.763017
-0.73518
0.0141409
0.295935
0.0323
0.886447
0.0506726
1.32154
0.0712956
1.62318
0.0959746
1.91267
0.130612
2.22246
0.17765
2.59226
0.249978
3.03762
0.379685
3.58374
0.520087
4.47887
0.437693
5.12439
0.43238
5.29404
0.784069
6.06462
1.02367
5.58624
1.18625
4.4515
1.14042
3.14555
0.805587
1.62989
0.504732
0.255885
0.18909
-0.447376
-0.54609
0.0153805
0.280554
0.0371119
0.864715
0.0612814
1.29737
0.0894838
1.59498
0.125147
1.877
0.175112
2.1725
0.250033
2.51733
0.38274
2.90491
0.612322
3.35415
0.85839
4.2328
0.900373
5.0824
0.792304
5.40211
1.04747
5.80945
1.22549
5.40822
1.31838
4.35862
1.298
3.16592
1.01051
1.91737
0.645656
0.620745
0.279113
-0.0808332
-0.266977
0.0159071
0.264647
0.0380136
0.842609
0.0661706
1.26921
0.101641
1.55951
0.148179
1.83047
0.213756
2.10692
0.319875
2.41121
0.508003
2.71678
0.794068
3.06809
1.11722
3.90965
1.21473
4.98489
0.99957
5.61727
1.07343
5.73559
1.1763
5.30534
1.23558
4.29934
1.15816
3.24334
0.92319
2.15234
0.627964
0.915971
0.267813
0.279318
0.000836581
0.0193384
0.245309
0.0425929
0.819354
0.0714057
1.2404
0.109375
1.52154
0.161826
1.77802
0.234688
2.03406
0.353365
2.29254
0.550566
2.51958
0.832237
2.78642
1.22462
3.51727
1.36279
4.84671
1.1083
5.87176
1.05409
5.7898
1.06206
5.29737
0.970494
4.3909
0.803643
3.41019
0.702895
2.25309
0.511226
1.10764
0.216513
0.574031
0.21735
0.0219127
0.223396
0.0423899
0.798877
0.068561
1.21423
0.104268
1.48583
0.15071
1.73157
0.212353
1.97242
0.302756
2.20213
0.435138
2.3872
0.621292
2.60026
0.902421
3.23614
1.098
4.65114
0.922674
6.04709
0.683512
6.02896
0.504094
5.47679
0.376388
4.51861
0.370378
3.4162
0.473316
2.15015
0.336198
1.24476
0.12465
0.78558
0.341999
0.0316038
0.191792
0.0527421
0.777739
0.0732941
1.19368
0.0958921
1.46324
0.118659
1.70881
0.142322
1.94875
0.161478
2.18298
0.157995
2.39068
0.127294
2.63097
0.0182958
3.34513
-0.0298315
4.69927
-0.266096
6.28335
-0.427081
6.18995
-0.42371
5.47342
-0.190767
4.28567
0.102353
3.12308
0.257207
1.9953
0.162053
1.33991
0.0443774
0.903255
0.386377
0.0515237
0.140269
0.078723
0.750539
0.0862862
1.18612
0.084754
1.46477
0.0755522
1.71801
0.0480531
1.97625
-0.0215059
2.25254
-0.169346
2.53852
-0.432536
2.89416
-0.789683
3.70228
-1.13713
5.04671
-1.24036
6.38659
-1.06396
6.01355
-0.711857
5.12131
-0.247605
3.82141
0.099301
2.77618
0.165637
1.92896
0.0869662
1.41858
0.0164084
0.973813
0.402785
0.0624016
0.077867
0.120798
0.692143
0.129945
1.17697
0.109673
1.48504
0.0692785
1.7584
-0.00739344
2.05292
-0.144936
2.39008
-0.387866
2.78145
-0.780279
3.28657
-1.27081
4.19281
-1.56188
5.33778
-1.34971
6.17442
-0.919122
5.58296
-0.374862
4.57705
0.0255062
3.42105
0.22293
2.57875
0.198534
1.95336
0.11136
1.50576
0.0362585
1.04891
0.439044
0.031026
0.046841
0.0949365
0.628233
0.106637
1.16527
0.0767274
1.51495
0.019778
1.81535
-0.0739618
2.14666
-0.219714
2.53583
-0.441421
3.00316
-0.757822
3.60297
-1.10093
4.53592
-1.16975
5.4066
-0.851852
5.85652
-0.460774
5.19188
-0.0999345
4.21621
0.0868002
3.23431
0.145617
2.51994
0.116694
1.98228
0.0652541
1.5572
0.0194365
1.09473
0.45848
-0.00618592
0.0530269
0.0144857
0.607561
0.00630342
1.17345
-0.0278759
1.54913
-0.0875959
1.87507
-0.175778
2.23485
-0.30595
2.666
-0.495528
3.19274
-0.762833
3.87027
-1.07193
4.84502
-1.11544
5.4501
-0.773647
5.51473
-0.405604
4.82384
-0.118656
3.92927
0.0117028
3.10395
0.0487486
2.48289
0.032027
1.999
0.00581982
1.5834
-0.00603446
1.10659
0.452446
-0.0287957
0.0818226
-0.040657
0.619422
-0.0560208
1.18881
-0.0906997
1.58381
-0.144368
1.92874
-0.221268
2.31174
-0.328999
2.77374
-0.480293
3.34403
-0.681396
4.07138
-0.908799
5.07242
-0.948779
5.49008
-0.654932
5.22089
-0.355998
4.5249
-0.147908
3.72118
-0.0540159
3.01006
-0.0224292
2.4513
-0.0227536
1.99933
-0.0270945
1.58774
-0.0189187
1.09841
0.433527
-0.0371285
0.118951
-0.0620595
0.644353
-0.0818672
1.20862
-0.116444
1.61839
-0.165335
1.97763
-0.231034
2.37744
-0.317475
2.86018
-0.431682
3.45824
-0.572431
4.21213
-0.717103
5.21709
-0.744643
5.51762
-0.534738
5.01098
-0.316463
4.30663
-0.169229
3.57394
-0.0961092
2.93694
-0.062899
2.41809
-0.0500783
1.98651
-0.0423896
1.58006
-0.0272487
1.08327
0.406278
-0.0362868
0.155238
-0.0710973
0.679164
-0.0906785
1.2282
-0.117564
1.64527
-0.158654