/*--------------------------------*- C++ -*----------------------------------*\
| =========                 |                                                 |
| \\      /  F ield         | OpenFOAM: The Open Source CFD Toolbox           |
|  \\    /   O peration     | Version:  v2012                                 |
|   \\  /    A nd           | Website:  www.openfoam.com                      |
|    \\/     M anipulation  |                                                 |
\*---------------------------------------------------------------------------*/
FoamFile
{
    version     2.0;
    format      ascii;
    class       volVectorField;
    location    "13";
    object      U;
}
// * * * * * * * * * * * * * * * * * * * * * * * * * * * * * * * * * * * * * //

dimensions      [0 1 -1 0 0 0 0];


internalField   nonuniform List<vector> 
2200
(
(0.878661 -0.0301571 0)
(1.00572 -0.0512329 0)
(1.00308 -0.0350389 0)
(1.00031 -0.0242994 0)
(0.999976 -0.0166352 0)
(0.999585 -0.010545 0)
(0.999513 -0.00672508 0)
(0.999862 -0.00418306 0)
(1.00004 -0.00234002 0)
(1.00016 -0.000744364 0)
(1.00009 0.000932703 0)
(1.00003 0.00254931 0)
(0.999832 0.00432618 0)
(0.999444 0.00681007 0)
(0.99955 0.0105956 0)
(0.999968 0.0166705 0)
(1.00032 0.0243411 0)
(1.0031 0.0350811 0)
(1.00573 0.0512449 0)
(0.878663 0.0301733 0)
(0.71367 -0.0329729 0)
(0.997102 -0.0624913 0)
(1.03341 -0.0558338 0)
(1.0247 -0.0461121 0)
(1.01632 -0.0358943 0)
(1.01035 -0.0262626 0)
(1.0062 -0.0182325 0)
(1.00361 -0.0115023 0)
(1.00234 -0.00605308 0)
(1.00198 -0.00163045 0)
(1.00192 0.00213701 0)
(1.00229 0.00649095 0)
(1.00352 0.0119017 0)
(1.00617 0.0186273 0)
(1.01032 0.0266579 0)
(1.01629 0.0362337 0)
(1.02465 0.0463604 0)
(1.03329 0.0559863 0)
(0.996986 0.0626303 0)
(0.713529 0.0330019 0)
(0.535338 -0.0236549 0)
(0.971137 -0.0564079 0)
(1.05615 -0.0535037 0)
(1.05126 -0.0470545 0)
(1.03488 -0.0383643 0)
(1.02394 -0.0306996 0)
(1.01611 -0.0224921 0)
(1.01088 -0.0147127 0)
(1.00772 -0.0080244 0)
(1.00616 -0.00222665 0)
(1.00614 0.00310714 0)
(1.00761 0.00895075 0)
(1.01075 0.0155634 0)
(1.01597 0.023258 0)
(1.02373 0.0312753 0)
(1.03462 0.038817 0)
(1.051 0.04741 0)
(1.05592 0.0538273 0)
(0.970725 0.0565831 0)
(0.534743 0.0237107 0)
(0.397575 -0.0121965 0)
(0.915461 -0.0444767 0)
(1.06016 -0.0443509 0)
(1.07072 -0.0413163 0)
(1.0545 -0.0344572 0)
(1.03864 -0.0284082 0)
(1.02653 -0.0223026 0)
(1.01792 -0.0161511 0)
(1.01254 -0.00952429 0)
(1.01009 -0.00281563 0)
(1.00993 0.00425109 0)
(1.01229 0.0107827 0)
(1.01758 0.0172256 0)
(1.02605 0.0231375 0)
(1.03812 0.0291425 0)
(1.05397 0.0350759 0)
(1.07016 0.0418361 0)
(1.0594 0.0447169 0)
(0.914505 0.0447042 0)
(0.396481 0.0122483 0)
(0.321331 -0.00351442 0)
(0.854993 -0.0290488 0)
(1.05367 -0.0363198 0)
(1.08204 -0.0344765 0)
(1.06978 -0.0297828 0)
(1.05235 -0.0243379 0)
(1.03851 -0.0193203 0)
(1.02797 -0.01431 0)
(1.02049 -0.00882153 0)
(1.01678 -0.00260656 0)
(1.01666 0.00456933 0)
(1.02019 0.0104692 0)
(1.02745 0.015713 0)
(1.03795 0.020668 0)
(1.05173 0.0254477 0)
(1.06913 0.0307307 0)
(1.08129 0.0352571 0)
(1.0526 0.0368963 0)
(0.853303 0.0293404 0)
(0.319695 0.00357728 0)
(0.284714 0.000698521 0)
(0.804164 -0.0155882 0)
(1.03826 -0.0249357 0)
(1.0851 -0.0259129 0)
(1.07789 -0.0235439 0)
(1.06083 -0.0192807 0)
(1.04737 -0.0155692 0)
(1.03684 -0.0116793 0)
(1.02895 -0.00698454 0)
(1.02478 -0.00171046 0)
(1.02452 0.00424654 0)
(1.0283 0.00937425 0)
(1.03599 0.0138506 0)
(1.0463 0.0173285 0)
(1.05967 0.0208024 0)
(1.07665 0.0247401 0)
(1.08364 0.0268274 0)
(1.03632 0.0255953 0)
(0.801393 0.0158977 0)
(0.282467 -0.000605359 0)
(0.271062 0.00173187 0)
(0.768949 -0.00600375 0)
(1.02138 -0.0138317 0)
(1.08151 -0.0162535 0)
(1.0783 -0.0162956 0)
(1.06268 -0.0148047 0)
(1.04932 -0.013052 0)
(1.03916 -0.0099469 0)
(1.03207 -0.00580887 0)
(1.02834 -0.000924876 0)
(1.02803 0.00403387 0)
(1.03122 0.00878809 0)
(1.03785 0.0125329 0)
(1.04762 0.0151316 0)
(1.0609 0.016386 0)
(1.07635 0.0175446 0)
(1.07924 0.0171953 0)
(1.01849 0.0144784 0)
(0.765218 0.00631893 0)
(0.268038 -0.00163907 0)
(0.269943 0.00143336 0)
(0.749876 -0.000599926 0)
(1.00702 -0.00537561 0)
(1.07409 -0.0082778 0)
(1.074 -0.00990448 0)
(1.06054 -0.0108203 0)
(1.04868 -0.010373 0)
(1.03983 -0.00815395 0)
(1.03347 -0.00482811 0)
(1.02993 -0.00027779 0)
(1.02955 0.00423625 0)
(1.03247 0.0084622 0)
(1.03839 0.0112654 0)
(1.04674 0.0128275 0)
(1.05832 0.0129329 0)
(1.07152 0.0115605 0)
(1.07121 0.00957797 0)
(1.00328 0.00624418 0)
(0.745125 0.0010209 0)
(0.266136 -0.00130978 0)
(0.272663 0.000816499 0)
(0.743461 0.000774315 0)
(0.997998 -0.00160434 0)
(1.06773 -0.00447392 0)
(1.07056 -0.00648017 0)
(1.06029 -0.00808603 0)
(1.05024 -0.00812846 0)
(1.04229 -0.00661054 0)
(1.03642 -0.00384444 0)
(1.03289 0.000322398 0)
(1.0323 0.00463116 0)
(1.03485 0.00849261 0)
(1.03997 0.0108621 0)
(1.04755 0.0120061 0)
(1.05712 0.0111417 0)
(1.06705 0.00891033 0)
(1.06377 0.00631838 0)
(0.992971 0.00281114 0)
(0.737009 -0.000223494 0)
(0.267814 -0.000641062 0)
(0.275187 0.000175795 0)
(0.741969 0.000438934 0)
(0.993334 -0.000893086 0)
(1.06327 -0.00352281 0)
(1.06835 -0.00538979 0)
(1.06102 -0.00660259 0)
(1.05346 -0.00645198 0)
(1.04704 -0.00493898 0)
(1.04201 -0.00237324 0)
(1.03864 0.00140225 0)
(1.03766 0.00522332 0)
(1.03951 0.0085778 0)
(1.04349 0.0104267 0)
(1.04904 0.0109394 0)
(1.05629 0.0103084 0)
(1.06336 0.00831634 0)
(1.05763 0.00570266 0)
(0.986159 0.00233889 0)
(0.733762 0.000237677 0)
(0.268828 -3.60887e-05 0)
(0.276052 1.971e-05 0)
(0.741673 0.000424018 0)
(0.989263 -0.000387599 0)
(1.05857 -0.00257168 0)
(1.06514 -0.00424699 0)
(1.06017 -0.00534867 0)
(1.05436 -0.00496555 0)
(1.0493 -0.00345247 0)
(1.04513 -0.000912953 0)
(1.04208 0.00255389 0)
(1.04102 0.00599661 0)
(1.04197 0.00871937 0)
(1.04456 0.0099956 0)
(1.04875 0.0103576 0)
(1.05421 0.00972442 0)
(1.05853 0.00766402 0)
(1.05105 0.00511886 0)
(0.980021 0.00211948 0)
(0.730713 0.000532683 0)
(0.268189 9.75495e-05 0)
(0.277156 0.000239543 0)
(0.741954 0.000640027 0)
(0.98577 0.000627716 0)
(1.05411 -0.00086483 0)
(1.06188 -0.00213258 0)
(1.05861 -0.00306077 0)
(1.05414 -0.00279724 0)
(1.04992 -0.00153215 0)
(1.04621 0.000735097 0)
(1.04326 0.0037255 0)
(1.04203 0.00680529 0)
(1.04253 0.00893225 0)
(1.04444 0.00984974 0)
(1.04738 0.00977629 0)
(1.0507 0.00860408 0)
(1.05312 0.0065011 0)
(1.0444 0.00408941 0)
(0.974283 0.0015894 0)
(0.727765 0.000408117 0)
(0.266945 8.1044e-05 0)
(0.278965 0.000299949 0)
(0.743141 0.00087308 0)
(0.985088 0.00144167 0)
(1.05158 0.000729863 0)
(1.06 7.48541e-05 0)
(1.05807 -0.000425201 0)
(1.05485 -0.00010176 0)
(1.05142 0.000939981 0)
(1.04805 0.00283596 0)
(1.04504 0.00527188 0)
(1.04327 0.00776758 0)
(1.04317 0.00921544 0)
(1.04411 0.00956046 0)
(1.04582 0.00893158 0)
(1.04778 0.00753677 0)
(1.04874 0.00556922 0)
(1.03907 0.00345643 0)
(0.969756 0.00144438 0)
(0.725417 0.000456486 0)
(0.266034 0.000118407 0)
(0.281158 0.000249129 0)
(0.745761 0.00103872 0)
(0.985499 0.00169884 0)
(1.05115 0.00165733 0)
(1.05982 0.00156896 0)
(1.05876 0.00167977 0)
(1.05645 0.00234997 0)
(1.05366 0.00351197 0)
(1.05058 0.00525344 0)
(1.04745 0.00731335 0)
(1.04505 0.00914995 0)
(1.04397 0.00999056 0)
(1.04384 0.00976158 0)
(1.04465 0.0086401 0)
(1.04544 0.00712413 0)
(1.0453 0.00527773 0)
(1.035 0.00345558 0)
(0.966156 0.00178254 0)
(0.723053 0.000755012 0)
(0.264718 0.000209802 0)
(0.283623 0.000291992 0)
(0.749065 0.00121952 0)
(0.986812 0.00211651 0)
(1.05174 0.00265153 0)
(1.06043 0.00314785 0)
(1.05979 0.00382994 0)
(1.05792 0.00484598 0)
(1.05545 0.00620813 0)
(1.05243 0.00790252 0)
(1.04904 0.00968617 0)
(1.046 0.0108961 0)
(1.04392 0.0110984 0)
(1.04306 0.0102754 0)
(1.04271 0.00903619 0)
(1.04272 0.0073573 0)
(1.04193 0.0055591 0)
(1.03129 0.0038401 0)
(0.962557 0.00226413 0)
(0.719926 0.00105938 0)
(0.262677 0.000281603 0)
(0.28643 0.000383032 0)
(0.752736 0.00146359 0)
(0.989574 0.00273333 0)
(1.05367 0.00360895 0)
(1.06231 0.00463782 0)
(1.06171 0.00583066 0)
(1.05984 0.00735946 0)
(1.05728 0.00910732 0)
(1.054 0.0109684 0)
(1.05005 0.0126314 0)
(1.04622 0.0133644 0)
(1.04324 0.012929 0)
(1.04149 0.0116112 0)
(1.04038 0.00992091 0)
(1.03974 0.00795714 0)
(1.03845 0.0060325 0)
(1.0275 0.00425493 0)
(0.95868 0.00265797 0)
(0.716175 0.00127741 0)
(0.260125 0.000326031 0)
(0.290449 0.000540194 0)
(0.758275 0.00201346 0)
(0.993366 0.00380691 0)
(1.05634 0.00537305 0)
(1.06479 0.00686265 0)
(1.06422 0.00855206 0)
(1.06224 0.0104219 0)
(1.0594 0.0124648 0)
(1.05559 0.0144822 0)
(1.05079 0.016069 0)
(1.04583 0.0164368 0)
(1.04181 0.015408 0)
(1.03914 0.0136223 0)
(1.03739 0.0114515 0)
(1.03623 0.00924413 0)
(1.03458 0.00714192 0)
(1.02336 0.00518946 0)
(0.954126 0.0033633 0)
(0.711348 0.00161951 0)
(0.256884 0.000411519 0)
(0.295068 0.000675492 0)
(0.764281 0.00241498 0)
(0.998456 0.00458919 0)
(1.06069 0.00648944 0)
(1.06873 0.00864731 0)
(1.06782 0.0110674 0)
(1.06546 0.0137407 0)
(1.06208 0.0164576 0)
(1.05749 0.0189409 0)
(1.0516 0.0206264 0)
(1.04536 0.0206702 0)
(1.04027 0.0190084 0)
(1.03671 0.0165586 0)
(1.03425 0.0137372 0)
(1.03257 0.0109602 0)
(1.03048 0.00837128 0)
(1.0188 0.00603705 0)
(0.948903 0.00393404 0)
(0.705761 0.00193864 0)
(0.25307 0.000493913 0)
(0.30202 0.000899163 0)
(0.773716 0.00340469 0)
(1.00537 0.00640971 0)
(1.06607 0.00914126 0)
(1.07377 0.0117342 0)
(1.07258 0.014736 0)
(1.06969 0.0178916 0)
(1.06549 0.0211853 0)
(1.05974 0.0241264 0)
(1.05233 0.0259678 0)
(1.04436 0.0257268 0)
(1.03779 0.0234373 0)
(1.0331 0.0202575 0)
(1.02983 0.0168195 0)
(1.02757 0.013563 0)
(1.02513 0.0105837 0)
(1.01309 0.00787594 0)
(0.942481 0.00525893 0)
(0.698551 0.00254557 0)
(0.248079 0.000631203 0)
(0.309665 0.00119985 0)
(0.783899 0.00399225 0)
(1.01386 0.00764591 0)
(1.07338 0.0110026 0)
(1.08033 0.0147909 0)
(1.07845 0.0189047 0)
(1.07471 0.0232404 0)
(1.06937 0.0274412 0)
(1.06211 0.0310165 0)
(1.05283 0.0330256 0)
(1.0429 0.0323716 0)
(1.03474 0.029291 0)
(1.02891 0.025174 0)
(1.02488 0.0207892 0)
(1.02213 0.0165679 0)
(1.01923 0.0127056 0)
(1.00641 0.00919663 0)
(0.934259 0.00602363 0)
(0.68949 0.00297061 0)
(0.242133 0.000758999 0)
(0.321614 0.00157261 0)
(0.79902 0.00590031 0)
(1.02553 0.0107563 0)
(1.0827 0.0152224 0)
(1.089 0.0194624 0)
(1.08625 0.0245803 0)
(1.08136 0.0297909 0)
(1.07442 0.0350168 0)
(1.06515 0.0393594 0)
(1.05346 0.0415794 0)
(1.04106 0.0404495 0)
(1.03086 0.0364221 0)
(1.02351 0.0311936 0)
(1.01835 0.0257722 0)
(1.01478 0.0207025 0)
(1.01129 0.0161236 0)
(0.997971 0.0120583 0)
(0.925025 0.00809642 0)
(0.679112 0.00392296 0)
(0.234659 0.000937413 0)
(0.335263 0.00221592 0)
(0.817399 0.00690059 0)
(1.03984 0.0132532 0)
(1.09478 0.0188693 0)
(1.09995 0.0253461 0)
(1.09594 0.0320511 0)
(1.0893 0.0388445 0)
(1.08015 0.0452759 0)
(1.0682 0.0502788 0)
(1.05347 0.0525151 0)
(1.03812 0.0506031 0)
(1.0256 0.0453245 0)
(1.01664 0.0387709 0)
(1.0104 0.0320327 0)
(1.00609 0.0256163 0)
(1.00198 0.0197713 0)
(0.987328 0.0143247 0)
(0.911517 0.00936093 0)
(0.664 0.00452232 0)
(0.225329 0.00114337 0)
(0.356232 0.00317324 0)
(0.841708 0.0110016 0)
(1.05905 0.0190526 0)
(1.11015 0.0263984 0)
(1.11394 0.0339123 0)
(1.10793 0.0421631 0)
(1.09895 0.0505894 0)
(1.08697 0.0581592 0)
(1.07175 0.0637984 0)
(1.05349 0.0657891 0)
(1.0348 0.062823 0)
(1.01965 0.0560383 0)
(1.00875 0.0478421 0)
(1.00106 0.0395199 0)
(0.99566 0.0316829 0)
(0.990629 0.0246295 0)
(0.975097 0.0184755 0)
(0.898115 0.0124073 0)
(0.649326 0.00603462 0)
(0.214513 0.00139752 0)
(0.384621 0.00440833 0)
(0.87704 0.0129763 0)
(1.08426 0.0248676 0)
(1.13055 0.0343845 0)
(1.13186 0.0456508 0)
(1.12277 0.0563362 0)
(1.1104 0.0664849 0)
(1.09445 0.0753144 0)
(1.07506 0.0812387 0)
(1.05246 0.0825538 0)
(1.02981 0.0780503 0)
(1.01156 0.0693702 0)
(0.998379 0.0593618 0)
(0.988962 0.0493132 0)
(0.982243 0.0398518 0)
(0.976083 0.0310039 0)
(0.958306 0.0225175 0)
(0.876531 0.014706 0)
(0.624371 0.00685255 0)
(0.199689 0.00159231 0)
(0.420152 0.00870326 0)
(0.917519 0.0233876 0)
(1.11707 0.037071 0)
(1.15653 0.05013 0)
(1.15332 0.0634683 0)
(1.1401 0.0761481 0)
(1.12299 0.0878788 0)
(1.10225 0.0971245 0)
(1.07792 0.102448 0)
(1.05049 0.10234 0)
(1.02363 0.0956883 0)
(1.0022 0.0846565 0)
(0.98671 0.0724327 0)
(0.975546 0.0603326 0)
(0.967341 0.0488508 0)
(0.959643 0.0385611 0)
(0.940039 0.0292244 0)
(0.856461 0.0197011 0)
(0.603929 0.00957162 0)
(0.186231 0.00181712 0)
(0.506022 0.0123252 0)
(0.988684 0.0323289 0)
(1.16016 0.0561359 0)
(1.18827 0.0721712 0)
(1.17912 0.090006 1.11156e-34)
(1.15936 0.104426 -6.47228e-35)
(1.13632 0.116497 0)
(1.10978 0.125001 0)
(1.07978 0.128907 0)
(1.04708 0.126437 0)
(1.01569 0.116946 0)
(0.990749 0.103247 0)
(0.972511 0.0887881 0)
(0.959057 0.0748364 0)
(0.948946 0.0618544 0)
(0.939212 0.0493764 0)
(0.915589 0.0373222 0)
(0.822226 0.0253265 0)
(0.556538 0.0111596 0)
(0.158993 0.00174986 0)
(0.566518 0.0278042 -4.23159e-21)
(1.06911 0.0576164 2.55689e-21)
(1.20868 0.0878593 0)
(1.22426 0.108767 2.68396e-21)
(1.20528 0.129294 -2.17283e-21)
(1.17851 0.142522 6.82845e-35)
(1.1489 0.153396 0)
(1.11571 0.160428 5.48118e-21)
(1.07951 0.162101 -1.93104e-20)
(1.04081 0.156754 4.21289e-21)
(1.00411 0.144187 0)
(0.974906 0.127679 -1.33084e-20)
(0.953162 0.110853 -1.65923e-20)
(0.93664 0.0946331 2.91695e-20)
(0.923596 0.079394 -2.34149e-20)
(0.910478 0.0656651 0)
(0.880842 0.0514184 -8.9803e-21)
(0.776095 0.0353421 0)
(0.514663 0.0210506 -4.8732e-20)
(0.141938 0.00379002 5.79648e-20)
(0.585966 0.0541667 -8.80778e-22)
(1.1123 0.104447 -3.69885e-20)
(1.24968 0.140477 1.13299e-20)
(1.257 0.159425 1.18977e-20)
(1.2292 0.176913 -3.78079e-21)
(1.19562 0.18807 6.75468e-21)
(1.159 0.197547 0)
(1.11914 0.202701 0)
(1.07666 0.201944 3.01687e-20)
(1.0316 0.194089 0)
(0.988996 0.178981 4.58305e-20)
(0.954618 0.160476 1.42774e-20)
(0.928305 0.142412 4.14106e-22)
(0.907516 0.125692 -3.25983e-20)
(0.890332 0.110333 0)
(0.87319 0.0960671 0)
(0.841921 0.0834553 -1.52026e-19)
(0.746535 0.0668521 3.83926e-19)
(0.502687 0.040493 -2.2779e-19)
(0.144532 0.0139231 -2.72646e-19)
(0.586161 0.0874442 7.30189e-20)
(1.13851 0.16552 -2.07719e-20)
(1.28027 0.207085 -4.93627e-21)
(1.2836 0.220619 -2.36546e-20)
(1.24896 0.232836 1.35466e-20)
(1.2089 0.240353 -1.24427e-20)
(1.16574 0.246764 7.9736e-21)
(1.11998 0.24862 0)
(1.07152 0.244789 -6.23544e-20)
(1.02038 0.234038 6.72287e-20)
(0.972057 0.216404 -1.25013e-19)
(0.932735 0.196473 6.06982e-20)
(0.902299 0.178017 -4.42982e-20)
(0.877912 0.161582 9.72982e-20)
(0.857662 0.147506 0)
(0.838481 0.134474 -3.7987e-20)
(0.80763 0.121417 0)
(0.720978 0.104374 2.19377e-19)
(0.499746 0.0688973 -5.2031e-19)
(0.157924 0.0239466 3.26971e-19)
(0.570651 0.118045 -3.46929e-19)
(1.15002 0.227484 1.38087e-19)
(1.29893 0.27803 2.15384e-20)
(1.30134 0.285898 0)
(1.262 0.293696 1.17516e-20)
(1.21695 0.297169 -1.19416e-20)
(1.16872 0.299355 -8.21441e-21)
(1.11791 0.297134 0)
(1.06398 0.289886 4.39618e-20)
(1.00751 0.275955 -4.62572e-20)
(0.954358 0.255746 1.09028e-19)
(0.911199 0.23423 0)
(0.877797 0.215076 -9.30248e-20)
(0.851247 0.1985 5.15327e-20)
(0.829726 0.184545 1.38729e-19)
(0.810511 0.172842 -1.21915e-19)
(0.782059 0.158755 2.02392e-19)
(0.704502 0.140433 -4.5091e-19)
(0.498989 0.0968401 2.86755e-19)
(0.165522 0.0341588 -3.61111e-19)
(0.549808 0.143127 2.15189e-19)
(1.14786 0.283957 -1.58563e-19)
(1.30757 0.34641 6.70654e-20)
(1.31053 0.351353 -9.02932e-20)
(1.26793 0.356163 5.9074e-20)
(1.21953 0.355598 -8.81611e-21)
(1.16772 0.353361 3.78787e-21)
(1.11271 0.34701 -3.13307e-20)
(1.05422 0.336112 -4.36952e-20)
(0.993275 0.31854 -9.85216e-20)
(0.935983 0.295196 -2.34615e-19)
(0.889977 0.271729 -7.81302e-20)
(0.855351 0.2517 2.85066e-21)
(0.828549 0.234616 -1.82779e-19)
(0.806943 0.220092 -6.20882e-21)
(0.78803 0.209236 1.77924e-19)
(0.762247 0.194396 -5.51828e-20)
(0.690439 0.175569 -3.25839e-20)
(0.494932 0.12251 0)
(0.166866 0.0434612 7.66794e-19)
(0.529321 0.166439 0)
(1.13842 0.33685 4.92505e-20)
(1.30857 0.410973 0)
(1.31262 0.414801 -1.20067e-20)
(1.26776 0.417905 -7.31493e-20)
(1.2174 0.413606 1.22896e-20)
(1.16313 0.407253 5.35088e-21)
(1.10488 0.397058 5.52513e-20)
(1.04307 0.38241 -2.57885e-20)
(0.978914 0.361101 4.42297e-20)
(0.919256 0.334704 1.26211e-19)
(0.872049 0.308785 1.72588e-19)
(0.83608 0.286719 -1.07133e-19)
(0.808105 0.268613 1.97723e-19)
(0.786341 0.253441 -1.58584e-19)
(0.767481 0.24248 0)
(0.743342 0.227421 -4.2216e-19)
(0.674928 0.206142 5.67688e-19)
(0.486902 0.145327 4.31357e-20)
(0.164511 0.0510204 -8.05132e-19)
(0.511536 0.187991 -6.2233e-21)
(1.12665 0.387549 -1.33059e-19)
(1.30399 0.47275 -3.83053e-19)
(1.30931 0.475494 2.07786e-19)
(1.2628 0.477327 -4.20048e-20)
(1.21149 0.469692 2.09558e-20)
(1.15555 0.459874 -1.67226e-21)
(1.09487 0.446267 -6.50965e-21)
(1.03052 0.427976 -9.16229e-20)
(0.963197 0.402966 1.19891e-21)
(0.900026 0.372846 -1.36633e-19)
(0.849863 0.344099 -1.83372e-19)
(0.813671 0.320591 1.2048e-19)
(0.786764 0.301251 -7.08978e-20)
(0.765298 0.285231 1.7236e-19)
(0.746876 0.273084 0)
(0.724413 0.257913 -2.61307e-19)
(0.658593 0.233023 3.86597e-19)
(0.475054 0.16527 7.43786e-19)
(0.160241 0.0571233 -8.70064e-19)
(0.497087 0.207842 -6.46478e-19)
(1.11225 0.435372 3.2578e-19)
(1.29575 0.531864 2.45988e-19)
(1.302 0.533287 -2.25164e-19)
(1.25441 0.533667 1.10252e-20)
(1.20266 0.523027 5.94883e-20)
(1.14542 0.51045 -5.3519e-21)
(1.0829 0.493909 -2.01005e-20)
(1.01651 0.472199 -5.5546e-20)
(0.94674 0.44362 9.7115e-20)
(0.882266 0.410242 1.29684e-19)
(0.832525 0.378645 2.87693e-19)
(0.794535 0.352151 0)
(0.765258 0.331048 5.41263e-21)
(0.743735 0.313526 -4.78889e-19)
(0.725766 0.300501 1.10018e-19)
(0.703674 0.284415 5.61015e-19)
(0.640205 0.25641 -1.63899e-19)
(0.461335 0.182043 3.54344e-19)
(0.15479 0.0622299 -2.86985e-20)
(0.486647 0.226635 7.00175e-21)
(1.09864 0.480827 3.02564e-19)
(1.28539 0.588137 1.87552e-19)
(1.29242 0.588466 -4.05052e-19)
(1.24398 0.587018 2.52557e-19)
(1.19176 0.573457 -7.547e-20)
(1.13331 0.558535 2.24562e-21)
(1.06933 0.539468 4.55867e-20)
(1.00127 0.514785 9.99388e-20)
(0.929105 0.483206 -1.23391e-19)
(0.861208 0.446197 0)
(0.807049 0.410955 -1.13295e-19)
(0.769685 0.382474 1.30072e-19)
(0.742991 0.35918 1.74443e-19)
(0.721977 0.341079 -1.00147e-19)
(0.704508 0.325428 -2.52455e-19)
(0.683463 0.308548 -7.67592e-20)
(0.621319 0.277551 -1.29928e-21)
(0.446362 0.196435 0)
(0.148304 0.0663234 0)
(0.478273 0.245185 -3.21184e-19)
(1.0851 0.523436 0)
(1.27364 0.640813 2.16226e-19)
(1.28126 0.641181 -1.00523e-19)
(1.23235 0.637838 -2.62844e-19)
(1.17964 0.62139 7.26298e-20)
(1.11994 0.604246 -3.72444e-21)
(1.05473 0.582897 -2.28075e-20)
(0.984987 0.555658 6.33936e-20)
(0.910408 0.521154 -4.98798e-20)
(0.840867 0.48071 7.27061e-20)
(0.788311 0.443189 3.53735e-19)
(0.749007 0.411382 1.32802e-20)
(0.719672 0.385865 -1.78291e-19)
(0.698839 0.36394 3.44014e-19)
(0.682437 0.348193 4.47414e-21)
(0.66226 0.330112 8.21234e-20)
(0.602276 0.29551 -4.0115e-19)
(0.430371 0.208358 4.08796e-19)
(0.141025 0.069213 -4.85515e-19)
(0.472503 0.265716 1.97687e-23)
(1.07244 0.563582 0)
(1.26091 0.689777 0)
(1.26901 0.690876 9.29017e-20)
(1.21987 0.686026 1.04099e-19)
(1.16681 0.66701 -5.96152e-20)
(1.10603 0.647814 3.19493e-20)
(1.03987 0.624307 0)
(0.968756 0.594749 -1.02519e-19)
(0.892683 0.557766 1.79906e-19)
(0.821297 0.514994 2.20374e-19)
(0.764422 0.472604 -1.33309e-19)
(0.724737 0.437745 -1.67058e-19)
(0.697012 0.409546 3.95032e-19)
(0.676599 0.3884 -1.21761e-19)
(0.659708 0.368683 -1.4781e-19)
(0.638718 0.347822 -9.0598e-20)
(0.579358 0.311192 -4.35523e-19)
(0.413202 0.217676 6.05463e-20)
(0.132587 0.0711274 5.27634e-19)
(0.468809 0.284898 -1.28893e-19)
(1.06045 0.601286 -2.01166e-19)
(1.24719 0.735272 2.39044e-20)
(1.25591 0.737316 3.42558e-22)
(1.20678 0.731362 3.29172e-20)
(1.15359 0.710249 -1.63603e-19)
(1.09201 0.689271 0)
(1.02512 0.663738 1.71273e-20)
(0.952543 0.63219 -1.35054e-20)
(0.874087 0.593234 2.8318e-19)
(0.798948 0.546374 -5.59631e-20)
(0.740946 0.50222 6.11747e-20)
(0.700174 0.464618 0)
(0.670835 0.432828 -2.15645e-19)
(0.650336 0.406028 2.68999e-19)
(0.636113 0.38594 0)
(0.618454 0.365361 -1.98969e-19)
(0.560506 0.324572 5.81701e-19)
(0.395087 0.224817 6.97818e-20)
(0.123632 0.0715447 -6.54787e-19)
(0.46619 0.302255 -2.86452e-19)
(1.04885 0.636548 3.65668e-19)
(1.23318 0.777521 0)
(1.24234 0.780413 2.3243e-19)
(1.19319 0.773595 0)
(1.14003 0.750879 1.51427e-19)
(1.07792 0.728508 0)
(1.01045 0.701258 0)
(0.936454 0.668144 -3.48253e-20)
(0.855994 0.627219 -2.75711e-19)
(0.779518 0.579155 -4.09165e-19)
(0.719674 0.531746 7.71915e-20)
(0.676977 0.489539 2.88767e-19)
(0.648947 0.455352 2.42981e-19)
(0.628638 0.427566 -8.63814e-19)
(0.611502 0.403863 -3.57395e-19)
(0.59041 0.378262 2.07697e-19)
(0.53304 0.333888 0)
(0.375659 0.229355 6.0427e-19)
(0.113637 0.0708569 -7.11411e-19)
(0.464002 0.318303 3.16882e-19)
(1.03755 0.669734 -4.02162e-19)
(1.21919 0.816815 0)
(1.22877 0.820597 -9.76356e-21)
(1.17954 0.813013 -9.54716e-20)
(1.12642 0.788911 0)
(1.06394 0.765433 -1.11125e-20)
(0.996015 0.736743 2.14635e-20)
(0.920884 0.702314 -4.50699e-20)
(0.83896 0.660063 2.74719e-20)
(0.759478 0.609769 0)
(0.69499 0.558374 3.0811e-19)
(0.648457 0.513793 3.77233e-21)
(0.6147 0.47361 1.32087e-19)
(0.596034 0.441438 1.59217e-19)
(0.58494 0.416062 0)
(0.570024 0.38802 -3.52538e-19)
(0.513496 0.342459 6.91232e-19)
(0.355522 0.231581 -7.39062e-19)
(0.103481 0.068754 1.54837e-18)
(0.461881 0.333549 0)
(1.02691 0.701284 0)
(1.20564 0.853479 -2.1858e-19)
(1.21524 0.858073 0)
(1.16583 0.84973 0)
(1.11283 0.824444 2.22957e-19)
(1.05012 0.800062 -1.47463e-20)
(0.981943 0.770181 1.65007e-20)
(0.905815 0.734882 -3.77863e-21)
(0.821918 0.691632 0)
(0.738627 0.639421 -6.5414e-20)
(0.672578 0.587167 -2.5537e-19)
(0.626989 0.538931 -3.20736e-19)
(0.598424 0.497435 -1.33249e-19)
(0.575169 0.461678 1.75693e-19)
(0.558427 0.427154 -4.17723e-19)
(0.537542 0.400596 7.64638e-19)
(0.483001 0.347055 9.55122e-21)
(0.333789 0.231279 -7.15361e-19)
(0.0925383 0.0653036 -1.06275e-19)
(0.459672 0.348167 0)
(1.01673 0.731022 -3.1214e-19)
(1.19247 0.887696 2.45286e-19)
(1.20208 0.893159 0)
(1.15257 0.88413 0)
(1.09967 0.857704 -4.94188e-19)
(1.0368 0.832515 0)
(0.968285 0.801685 0)
(0.891156 0.765726 -7.63124e-20)
(0.805484 0.721811 5.19987e-20)
(0.720724 0.668566 -5.2104e-19)
(0.649867 0.613169 0)
(0.596054 0.560993 -3.47632e-19)
(0.556143 0.512745 1.20634e-20)
(0.536565 0.46746 -5.6139e-19)
(0.52655 0.439944 2.26614e-19)
(0.516162 0.400628 4.83266e-21)
(0.461882 0.346469 -8.2229e-19)
(0.313334 0.227527 3.90618e-19)
(0.084159 0.0611787 1.13701e-19)
(0.457381 0.362086 0)
(1.00727 0.759283 -3.70308e-19)
(1.17968 0.919755 2.60097e-19)
(1.18905 0.925914 5.44028e-19)
(1.1395 0.916191 1.09398e-19)
(1.0868 0.888814 -7.61888e-20)
(1.02391 0.862937 4.6373e-20)
(0.955268 0.831347 -7.65688e-20)
(0.877501 0.794944 8.16319e-20)
(0.790477 0.750757 3.18255e-19)
(0.702003 0.697968 4.32096e-19)
(0.626591 0.643076 8.29702e-20)
(0.57183 0.590789 5.05122e-19)
(0.538253 0.537739 3.28441e-19)
(0.512859 0.495159 4.05448e-19)
(0.497031 0.444856 -2.54211e-19)
(0.478198 0.406763 -3.04045e-19)
(0.428806 0.345056 3.58669e-19)
(0.288929 0.221523 -2.13923e-19)
(0.0773837 0.0563516 3.72968e-19)
(0.45492 0.37529 4.96219e-19)
(0.997942 0.785451 5.87436e-19)
(1.16725 0.949592 1.4243e-19)
(1.17652 0.956511 1.58259e-20)
(1.1271 0.946178 -3.80845e-19)
(1.07459 0.917923 1.4309e-19)
(1.01175 0.891443 -5.33605e-20)
(0.942949 0.85919 -2.16805e-20)
(0.864578 0.822615 -7.2619e-20)
(0.776165 0.778403 -3.55244e-19)
(0.684725 0.725259 2.58449e-20)
(0.606374 0.668065 0)
(0.544134 0.610829 0)
(0.493543 0.557261 -1.66777e-19)
(0.465425 0.498562 -6.64875e-19)
(0.455417 0.450056 5.51142e-19)
(0.449682 0.39407 3.39489e-19)
(0.408626 0.327381 0)
(0.279183 0.199595 6.80767e-19)
(0.0711388 0.0416527 -4.07193e-19)
(0.452471 0.387536 -2.65355e-19)
(0.989157 0.810255 2.25894e-19)
(1.15515 0.977508 -3.194e-19)
(1.16418 0.984995 -3.4298e-19)
(1.11493 0.974019 -1.5102e-19)
(1.06274 0.945073 3.36964e-20)
(1.00008 0.918073 0)
(0.931306 0.885376 1.15453e-19)
(0.85243 0.848674 1.33923e-20)
(0.76268 0.804896 0)
(0.668815 0.752726 0)
(0.585583 0.697013 5.77682e-20)
(0.519939 0.640292 8.85937e-20)
(0.47489 0.581444 -1.7924e-19)
(0.439796 0.52382 4.80652e-19)
(0.415527 0.456175 -6.05132e-19)
(0.400969 0.394468 -7.33273e-19)
(0.375315 0.308972 6.54434e-19)
(0.287849 0.200428 -2.45812e-19)
(0.140896 0.106268 1.40917e-19)
(0.449617 0.398967 3.06976e-19)
(0.980343 0.832922 0)
(1.14346 1.00337 0)
(1.15245 1.0115 -1.1553e-19)
(1.10349 0.999969 9.34857e-20)
(1.05156 0.970373 -2.05352e-20)
(0.989136 0.942945 -2.03928e-19)
(0.920396 0.909907 -1.91507e-19)
(0.841165 0.873224 8.00304e-20)
(0.750169 0.830076 -2.84706e-20)
(0.653805 0.778558 6.83406e-20)
(0.565928 0.722756 -4.74545e-19)
(0.49346 0.666504 -5.21791e-19)
(0.428301 0.607514 -9.53544e-20)
(0.382824 0.536265 0)
(0.358324 0.472246 -1.38667e-20)
(0.350613 0.363644 3.98925e-19)
(0.326325 0.221273 -6.92153e-19)
(0.301558 0.0510893 5.117e-19)
(0.0941954 -0.0650805 4.11362e-19)
(0.446803 0.410083 -6.66203e-19)
(0.972043 0.854561 -2.84309e-19)
(1.13205 1.0277 5.2554e-21)
(1.14084 1.03633 1.47671e-19)
(1.09213 1.02426 0)
(1.04056 0.994243 4.34282e-19)
(0.978451 0.966529 2.53136e-19)
(0.909845 0.933331 -4.38165e-20)
(0.830426 0.897029 -2.78921e-20)
(0.73861 0.854593 -2.67099e-20)
(0.640357 0.804746 2.48091e-20)
(0.548887 0.752897 4.19447e-19)
(0.467674 0.698055 5.10287e-19)
(0.40867 0.633129 9.16617e-20)
(0.35741 0.577464 5.04263e-19)
(0.30189 0.485183 0)
(0.212939 0.375852 0)
(0.0822027 0.351499 5.09876e-19)
(-0.0457601 0.636114 -3.16308e-20)
(-0.00382973 1.45454 -6.56359e-19)
(0.443721 0.420405 3.60367e-19)
(0.963768 0.874411 8.49163e-19)
(1.12102 1.05043 -1.26952e-18)
(1.12974 1.05976 7.63202e-19)
(1.08135 1.04734 -8.87489e-20)
(1.03003 1.01704 5.69482e-19)
(0.968169 0.989224 0)
(0.899662 0.956183 2.03293e-19)
(0.820008 0.920511 0)
(0.727415 0.879104 2.54336e-19)
(0.626322 0.831266 -3.87673e-20)
(0.530469 0.780308 4.34678e-20)
(0.448816 0.728657 5.63894e-19)
(0.361449 0.678688 -2.06956e-19)
(0.274586 0.609031 -2.65259e-19)
(0.204611 0.553956 0)
(0.113536 0.636556 0)
(0.0555563 1.18346 0)
(0.0885411 2.39071 -2.8811e-19)
(0.12052 2.87539 -1.78019e-19)
(0.440742 0.429904 0)
(0.95598 0.893328 0)
(1.11026 1.0719 4.54074e-19)
(1.11881 1.08179 -6.36032e-19)
(1.07066 1.06905 4.35704e-19)
(1.01968 1.03868 -5.21789e-19)
(0.95821 1.01095 -2.93912e-20)
(0.89001 0.978265 2.2885e-20)
(0.810432 0.943287 7.15985e-21)
(0.71674 0.903871 -2.89308e-19)
(0.61345 0.859653 5.90579e-20)
(0.514121 0.81589 3.91715e-19)
(0.415532 0.769958 -5.55855e-19)
(0.342591 0.708983 -6.46962e-19)
(0.280217 0.672757 2.25936e-19)
(0.215991 0.781189 0)
(0.162064 1.43765 3.23025e-19)
(0.166077 2.64385 3.70691e-19)
(0.166539 3.0713 -4.14737e-19)
(0.158021 3.21571 4.68038e-19)
(0.437591 0.438433 0)
(0.948126 0.910409 6.90997e-19)
(1.09994 1.09184 -1.17631e-19)
(1.10849 1.10252 8.01391e-19)
(1.06063 1.08963 -4.57331e-19)
(1.00993 1.05926 0)
(0.948774 1.03169 0)
(0.880782 0.999471 0)
(0.801185 0.965825 -6.64389e-20)
(0.70762 0.928426 3.22141e-21)
(0.603931 0.886876 0)
(0.500963 0.844147 -3.82286e-19)
(0.414212 0.804146 0)
(0.300122 0.771662 4.60664e-19)
(0.227358 0.843496 -2.98959e-19)
(0.180951 1.4054 -2.49618e-19)
(0.200936 2.63334 -6.10621e-19)
(0.21923 3.12147 -3.0327e-19)
(0.208066 3.2757 -3.46597e-19)
(0.192197 3.31852 3.08166e-19)
(0.434546 0.44642 -2.33979e-19)
(0.940783 0.926798 1.41746e-20)
(1.08993 1.1107 -1.2679e-19)
(1.09835 1.12203 -6.41206e-19)
(1.05072 1.109 0)
(1.00036 1.07881 0)
(0.939627 1.05159 0)
(0.872028 1.02012 -1.42537e-20)
(0.792764 0.987675 7.4673e-20)
(0.698689 0.952379 0)
(0.592926 0.914829 0)
(0.490425 0.879744 0)
(0.383318 0.851062 0)
(0.318839 0.848268 3.03539e-19)
(0.302579 1.16475 7.85214e-19)
(0.299258 2.276 2.43035e-19)
(0.314676 3.07246 4.37106e-19)
(0.304504 3.29723 -2.72093e-19)
(0.250489 3.36981 1.00496e-19)
(0.214978 3.38355 0)
(0.431231 0.453772 2.37066e-19)
(0.93316 0.94193 -1.48981e-18)
(1.08009 1.12869 -4.19379e-19)
(1.08861 1.1409 -1.02304e-19)
(1.04124 1.12787 1.16833e-19)
(0.99122 1.09787 -8.23764e-19)
(0.930891 1.07096 5.57178e-20)
(0.863778 1.04021 3.7955e-19)
(0.784884 1.00911 0)
(0.691087 0.976472 -1.6167e-20)
(0.586049 0.943137 1.47074e-20)
(0.476815 0.910927 0)
(0.389228 0.887941 0)
(0.336459 1.00276 -3.75893e-19)
(0.316394 1.7736 -2.13561e-21)
(0.321119 2.89334 -1.24969e-19)
(0.338309 3.29508 1.94718e-19)
(0.309286 3.40921 5.30337e-20)
(0.239374 3.44003 1.31798e-19)
(0.211497 3.44873 -6.73134e-20)
(0.427605 0.461166 4.56611e-19)
(0.92535 0.957916 1.42489e-18)
(1.06968 1.14725 5.15569e-19)
(1.0782 1.16007 0)
(1.03114 1.14693 0)
(0.981583 1.1171 6.31223e-19)
(0.921844 1.09053 -3.89344e-19)
(0.855274 1.06052 -3.49127e-19)
(0.777045 1.03103 -1.37782e-20)
(0.683881 1.00103 4.83063e-20)
(0.577627 0.97225 -2.75646e-19)
(0.472894 0.947554 0)
(0.392394 0.963921 0)
(0.379099 1.30842 -2.10098e-19)
(0.395497 2.35336 -2.68832e-19)
(0.435322 3.19001 0)
(0.464304 3.39996 1.08597e-19)
(0.394038 3.47213 2.34684e-19)
(0.311597 3.51631 -5.21999e-19)
(0.28272 3.54276 3.02033e-19)
(0.423195 0.468435 -8.65995e-19)
(0.916281 0.9738 -6.77903e-19)
(1.05836 1.16639 0)
(1.06722 1.18 0)
(1.02059 1.16675 0)
(0.971579 1.13693 0)
(0.912493 1.11053 4.15792e-19)
(0.846866 1.08126 -4.5409e-19)
(0.769645 1.05306 0)
(0.677189 1.02543 -3.84298e-20)
(0.57362 1.00115 4.55343e-19)
(0.467298 0.984041 2.37936e-20)
(0.410169 1.05828 4.05598e-20)
(0.425358 1.6458 3.08936e-19)
(0.465253 2.82236 -7.55315e-20)
(0.509005 3.33282 0)
(0.492372 3.47713 -8.84129e-20)
(0.394785 3.56867 1.12927e-19)
(0.2937 3.65141 3.85834e-19)
(0.213707 3.63765 -3.34479e-19)
(0.418257 0.476047 4.10392e-19)
(0.906591 0.991215 -6.66049e-19)
(1.04596 1.18667 0)
(1.05507 1.20062 -1.64133e-19)
(1.00892 1.18704 6.22581e-19)
(0.960663 1.15717 0)
(0.902597 1.13086 0)
(0.838012 1.10207 8.50339e-19)
(0.762012 1.07524 1.33858e-20)
(0.671174 1.05028 -6.77574e-20)
(0.567392 1.03054 -1.92846e-19)
(0.474782 1.02665 1.51716e-19)
(0.445606 1.20056 0)
(0.502211 2.03801 -1.44397e-19)
(0.555524 3.09932 1.21446e-19)
(0.609294 3.44373 -5.4385e-20)
(0.602413 3.56415 0)