/*--------------------------------*- C++ -*----------------------------------*\
| =========                 |                                                 |
| \\      /  F ield         | OpenFOAM: The Open Source CFD Toolbox           |
|  \\    /   O peration     | Version:  v2012                                 |
|   \\  /    A nd           | Website:  www.openfoam.com                      |
|    \\/     M anipulation  |                                                 |
\*---------------------------------------------------------------------------*/
FoamFile
{
    version     2.0;
    format      ascii;
    class       volScalarField;
    location    "62";
    object      p;
}
// * * * * * * * * * * * * * * * * * * * * * * * * * * * * * * * * * * * * * //

dimensions      [0 2 -2 0 0 0 0];


internalField   nonuniform List<scalar> 
2200
(
0.773096
0.751598
0.735692
0.720026
0.705418
0.692905
0.682558
0.674468
0.668782
0.665855
0.666377
0.670215
0.676563
0.68513
0.695817
0.708592
0.723387
0.739321
0.755367
0.776864
0.705508
0.70225
0.699327
0.695214
0.689758
0.683291
0.676682
0.670741
0.666252
0.663891
0.664383
0.667728
0.672931
0.679409
0.686406
0.693166
0.698833
0.702926
0.705772
0.709136
0.665575
0.665796
0.667858
0.669206
0.669601
0.668756
0.666788
0.664125
0.661603
0.660141
0.660717
0.663189
0.666496
0.669737
0.672081
0.673084
0.672819
0.671831
0.670198
0.669949
0.643084
0.644536
0.647135
0.64959
0.652038
0.654064
0.655229
0.655476
0.655129
0.654871
0.655553
0.656961
0.658177
0.658586
0.657914
0.656245
0.654088
0.651901
0.649288
0.647884
0.628711
0.630684
0.633505
0.636346
0.639214
0.642057
0.644529
0.646405
0.647657
0.648494
0.649264
0.649767
0.64956
0.648475
0.646635
0.64428
0.641739
0.639011
0.636212
0.63429
0.621336
0.622934
0.625141
0.62768
0.630357
0.633039
0.635651
0.638098
0.640147
0.641691
0.642604
0.642668
0.641869
0.640382
0.638506
0.636379
0.634067
0.63173
0.629633
0.628059
0.617896
0.618918
0.620191
0.622062
0.624214
0.626393
0.628606
0.630924
0.63318
0.635072
0.636153
0.636224
0.635491
0.634322
0.632952
0.63141
0.62972
0.62815
0.62704
0.626023
0.615203
0.615872
0.616508
0.617817
0.619444
0.62115
0.622928
0.624883
0.626993
0.62902
0.630324
0.630685
0.63041
0.629822
0.629077
0.628156
0.627122
0.626208
0.625764
0.625087
0.611913
0.612357
0.612758
0.613761
0.615034
0.616434
0.617958
0.619664
0.621566
0.623595
0.625196
0.626048
0.626369
0.626364
0.626113
0.625668
0.625111
0.624591
0.62441
0.623944
0.607813
0.60811
0.608471
0.609347
0.610472
0.611764
0.613224
0.614872
0.61674
0.618848
0.620796
0.622203
0.623042
0.623467
0.62359
0.623483
0.623208
0.622898
0.622778
0.622453
0.60304
0.60324
0.603615
0.604453
0.60556
0.60689
0.608446
0.610229
0.612252
0.614575
0.61696
0.618868
0.620162
0.620946
0.621339
0.621464
0.62138
0.621224
0.621125
0.620885
0.59778
0.597926
0.5983
0.599115
0.600268
0.601716
0.603453
0.605484
0.607844
0.610588
0.613508
0.615947
0.617638
0.618721
0.619351
0.619665
0.61978
0.619766
0.619703
0.619511
0.592075
0.592184
0.592567
0.593395
0.594633
0.596247
0.598234
0.600613
0.603451
0.606805
0.610343
0.61333
0.615444
0.616859
0.617765
0.618315
0.618639
0.618764
0.618743
0.618573
0.585965
0.586031
0.586415
0.587276
0.588631
0.590439
0.592707
0.595485
0.598882
0.602976
0.60731
0.610947
0.613565
0.615403
0.616684
0.617536
0.6181
0.618371
0.618389
0.618228
0.57933
0.579368
0.579795
0.58071
0.582208
0.584232
0.586798
0.590035
0.59409
0.599013
0.604281
0.608762
0.61206
0.614452
0.616193
0.617425
0.618242
0.618662
0.618728
0.618567
0.572068
0.572034
0.572457
0.573465
0.57516
0.577446
0.580374
0.584142
0.588958
0.594914
0.601323
0.606808
0.610954
0.614043
0.616363
0.618025
0.619138
0.619724
0.619841
0.619675
0.563852
0.563838
0.564293
0.565416
0.567382
0.570003
0.573423
0.57787
0.583599
0.590761
0.598506
0.605218
0.610379
0.614291
0.617255
0.619413
0.620868
0.621626
0.6218
0.621623
0.554592
0.554614
0.555065
0.556319
0.558578
0.561626
0.565668
0.570934
0.577736
0.586311
0.595737
0.603977
0.610352
0.615264
0.618966
0.621677
0.623518
0.624464
0.624689
0.624494
0.543818
0.543793
0.544347
0.545819
0.548447
0.552073
0.556931
0.563285
0.571505
0.58188
0.593259
0.603237
0.611022
0.617002
0.62153
0.624906
0.62717
0.628301
0.628575
0.628358
0.531029
0.530964
0.531639
0.533481
0.536674
0.541099
0.54704
0.554814
0.564846
0.577439
0.591141
0.603117
0.612426
0.619615
0.62511
0.629185
0.631924
0.633248
0.633556
0.63331
0.515939
0.515838
0.516611
0.51882
0.52275
0.52826
0.53567
0.545345
0.557731
0.573034
0.589466
0.603623
0.614652
0.623172
0.629693
0.634592
0.637816
0.639308
0.639641
0.639363
0.497503
0.497419
0.498438
0.501233
0.50618
0.513165
0.522553
0.534726
0.550093
0.568662
0.588178
0.6049
0.617809
0.62777
0.635457
0.641174
0.644874
0.646525
0.646851
0.64654
0.474821
0.474674
0.475981
0.479571
0.485987
0.495094
0.5072
0.522656
0.541696
0.564169
0.587256
0.606763
0.621714
0.633296
0.642216
0.648857
0.653031
0.654803
0.655088
0.654748
0.445507
0.445534
0.447634
0.452709
0.461453
0.473723
0.489693
0.509466
0.53301
0.559974
0.587043
0.609522
0.626691
0.639914
0.650132
0.657624
0.662155
0.663994
0.664206
0.663838
0.406825
0.407067
0.41061
0.418612
0.431434
0.448697
0.46997
0.4951
0.52391
0.555972
0.587414
0.61316
0.632629
0.647574
0.659019
0.667275
0.672055
0.673835
0.673946
0.673568
0.355435
0.35585
0.362857
0.376112
0.395362
0.419785
0.448062
0.479856
0.514907
0.552679
0.588768
0.617722
0.639495
0.656153
0.668852
0.677703
0.682361
0.683801
0.683753
0.683441
0.287941
0.290706
0.305835
0.327372
0.355548
0.388892
0.42534
0.464631
0.506611
0.550681
0.591841
0.624576
0.649156
0.667872
0.681914
0.691341
0.695769
0.696689
0.696612
0.696415
0.211233
0.220827
0.246091
0.277397
0.315759
0.358259
0.402982
0.450009
0.499257
0.550143
0.597049
0.634138
0.66172
0.682705
0.698381
0.708357
0.712468
0.712916
0.712934
0.712844
0.142796
0.157487
0.189071
0.229409
0.277441
0.328827
0.381649
0.436425
0.492986
0.550625
0.603198
0.644189
0.674828
0.697954
0.714806
0.725111
0.729023
0.729163
0.729269
0.729255
0.090735
0.103951
0.140609
0.187065
0.242496
0.301451
0.361701
0.423765
0.487206
0.551035
0.608719
0.653848
0.687463
0.712516
0.730718
0.741644
0.74543
0.745984
0.746202
0.746177
0.047643
0.0601491
0.100625
0.150963
0.211854
0.276801
0.343484
0.41193
0.48152
0.551377
0.614491
0.663578
0.699585
0.726577
0.746089
0.757461
0.76203
0.762877
0.762907
0.762972
0.0109241
0.0236279
0.0667687
0.119977
0.185224
0.254995
0.327063
0.401131
0.476539
0.552401
0.620616
0.672906
0.711386
0.739976
0.760879
0.772934
0.777699
0.778645
0.778699
0.778766
-0.0211019
-0.00819029
0.0371153
0.0929182
0.161783
0.235546
0.312313
0.39148
0.472239
0.553287
0.625691
0.68134
0.722177
0.752348
0.774372
0.786868
0.792065
0.793112
0.79321
0.793259
-0.0494707
-0.0365875
0.010373
0.0686287
0.140698
0.218012
0.298923
0.38249
0.467814
0.553445
0.630168
0.689253
0.732063
0.763439
0.786153
0.799375
0.804792
0.806015
0.806127
0.806166
-0.0753598
-0.0624615
-0.014179
0.0464737
0.121362
0.201749
0.286213
0.373546
0.46297
0.55315
0.634234
0.696107
0.740752
0.773469
0.796558
0.810258
0.816034
0.817366
0.817515
0.817527
-0.0993162
-0.0862262
-0.0371477
0.025761
0.103125
0.186238
0.273806
0.364503
0.457777
0.552246
0.637368
0.702082
0.748656
0.782239
0.805775
0.819981
0.825827
0.827306
0.827446
0.827433
-0.121885
-0.108493
-0.0587085
0.00615321
0.0856121
0.171126
0.261474
0.355268
0.45213
0.550551
0.639653
0.707414
0.755764
0.790409
0.814268
0.828406
0.834483
0.835931
0.836087
0.836038
-0.14314
-0.129593
-0.0791509
-0.0126829
0.068567
0.156276
0.249172
0.345811
0.445945
0.548075
0.641182
0.712138
0.762339
0.79791
0.822078
0.836042
0.842017
0.843349
0.843562
0.843442
-0.163358
-0.14976
-0.0986446
-0.0308262
0.0519575
0.14162
0.236812
0.336011
0.439075
0.544678
0.641799
0.716209
0.768609
0.805384
0.829494
0.842893
0.848655
0.849972
0.850052
0.849941
-0.18292
-0.16899
-0.117384
-0.0484255
0.0356975
0.127103
0.224326
0.325777
0.431469
0.540423
0.64161
0.719693
0.774863
0.812786
0.836788
0.849625
0.854622
0.855751
0.855783
0.855701
-0.202157
-0.187565
-0.135506
-0.0655151
0.0197715
0.112667
0.211636
0.315091
0.423228
0.535382
0.640484
0.722541
0.78094
0.820775
0.844676
0.856336
0.860356
0.860868
0.86091
0.860892
-0.220934
-0.205599
-0.153131
-0.0821957
0.00410305
0.0982798
0.19876
0.304026
0.414426
0.52949
0.638345
0.724735
0.786896
0.829252
0.853648
0.864132
0.866035
0.865631
0.865504
0.865353
-0.239242
-0.22325
-0.170302
-0.0984704
-0.0112898
0.0839743
0.185757
0.292652
0.405108
0.52279
0.635196
0.726057
0.79251
0.838522
0.864472
0.873495
0.872752
0.870739
0.87044
0.87139
-0.256912
-0.240442
-0.187013
-0.114357
-0.0263974
0.0698096
0.17272
0.281037
0.395301
0.515293
0.630897
0.726221
0.79769
0.84827
0.877367
0.886152
0.882664
0.875809
0.870931
0.869923
-0.274005
-0.257156
-0.203212
-0.129791
-0.0411408
0.0558696
0.159722
0.269236
0.385062
0.507079
0.625453
0.724959
0.801686
0.858253
0.892385
0.903121
0.899696
0.888718
0.888635
0.892785
-0.290452
-0.273263
-0.218829
-0.144731
-0.0554748
0.0422137
0.146836
0.257331
0.374475
0.49821
0.618841
0.722033
0.804241
0.867392
0.908475
0.924514
0.921862
0.892538
0.854247
0.820807
-0.306255
-0.288802
-0.233889
-0.159215
-0.0694719
0.0287314
0.133914
0.24515
0.363324
0.48843
0.610876
0.717094
0.804166
0.874768
0.925034
0.94949
0.960821
0.936368
0.953798
1.01504
-0.321328
-0.303758
-0.248469
-0.173398
-0.0833307
0.0151862
0.120688
0.232363
0.35117
0.477178
0.600944
0.709281
0.800448
0.87734
0.933772
0.963141
0.966228
0.939405
0.895836
0.912541
-0.335681
-0.318159
-0.262538
-0.187215
-0.0969647
0.00167814
0.107272
0.219091
0.338116
0.464522
0.589011
0.69839
0.790941
0.870527
0.928265
0.958046
0.939252
0.881301
0.815621
0.802772
-0.349271
-0.331944
-0.276085
-0.200687
-0.110392
-0.0117999
0.0936793
0.205359
0.324209
0.450487
0.574922
0.683966
0.77528
0.851001
0.903553
0.906756
0.868055
0.787837
0.711671
0.686989
-0.362157
-0.345162
-0.289141
-0.21382
-0.123621
-0.0252518
0.0799129
0.191182
0.309478
0.435045
0.558557
0.665839
0.752117
0.816295
0.844052
0.828105
0.765415
0.66157
0.572758
0.549013
-0.374766
-0.35815
-0.302073
-0.22699
-0.137011
-0.0389922
0.0657067
0.176345
0.293757
0.41807
0.539714
0.643287
0.72225
0.770346
0.764189
0.727043
0.612113
0.48757
0.378718
0.350166
-0.387974
-0.371765
-0.315586
-0.240781
-0.151095
-0.0534812
0.0506625
0.160517
0.276781
0.399313
0.518097
0.616083
0.687775
0.710659
0.676729
0.585946
0.427781
0.273449
0.142679
0.113875
-0.402278
-0.386285
-0.329956
-0.25545
-0.166077
-0.0688586
0.0346941
0.143657
0.258548
0.378818
0.493668
0.584922
0.645806
0.639887
0.587368
0.435288
0.234337
0.0208068
-0.16001
-0.209531
-0.417827
-0.401946
-0.345288
-0.270985
-0.1819
-0.0850808
0.0178297
0.125793
0.239108
0.356655
0.466432
0.551449
0.597086
0.559353
0.471532
0.282675
0.0513226
-0.237491
-0.558255
-0.707351
-0.434664
-0.418685
-0.361651
-0.287524
-0.19867
-0.102235
-4.09006e-06
0.106861
0.218412
0.332853
0.436723
0.514997
0.542606
0.47441
0.337219
0.131814
-0.101558
-0.444663
-1.02947
-1.60029
-0.452916
-0.43678
-0.379184
-0.305081
-0.21637
-0.120299
-0.0187743
0.0869355
0.196619
0.307792
0.405673
0.47563
0.484154
0.399825
0.207996
-0.0248863
-0.226721
-0.4601
-1.01186
-2.51675
-0.472566
-0.456091
-0.397916
-0.323846
-0.235212
-0.139495
-0.0387235
0.0657368
0.173397
0.281119
0.372975
0.433063
0.420761
0.34132
0.114865
-0.121989
-0.269143
-0.305709
-0.29412
-0.679389
-0.493586
-0.477029
-0.418119
-0.344047
-0.255541
-0.1603
-0.0604712
0.0425008
0.147812
0.251496
0.337596
0.387074
0.358759
0.291322
0.0653171
-0.135733
-0.245884
-0.253562
-0.200306
-0.240266
-0.515826
-0.49915
-0.439671
-0.365827
-0.277512
-0.182873
-0.0841861
0.0170432
0.119648
0.218814
0.299749
0.339183
0.304308
0.237213
0.0332461
-0.125966
-0.207804
-0.215749
-0.263707
-0.267612
-0.539274
-0.52273
-0.462638
-0.389097
-0.301052
-0.207217
-0.109916
-0.0106872
0.08889
0.183414
0.259239
0.289142
0.257095
0.176346
0.00511118
-0.116542
-0.186183
-0.163555
-0.183838
-0.185465
-0.563612
-0.5468
-0.486702
-0.413851
-0.326094
-0.233283
-0.137592
-0.040597
0.0556746
0.145613
0.216431
0.235646
0.21608
0.108336
-0.03011
-0.111627
-0.149811
-0.198311
-0.172578
-0.181181
-0.588798
-0.571572
-0.51189
-0.439816
-0.352335
-0.260906
-0.167046
-0.0724632
0.0201189
0.105688
0.172364
0.181194
0.17326
0.0478643
-0.0667731
-0.130184
-0.106674
-0.166602
-0.147521
-0.152455
-0.613612
-0.59623
-0.537932
-0.466748
-0.379505
-0.289865
-0.197989
-0.105991
-0.0175722
0.0640746
0.128006
0.129304
0.121515
-0.0034421
-0.0936218
-0.144183
-0.1327
-0.147447
-0.152977
-0.151134
-0.637876
-0.620641
-0.564299
-0.493907
-0.407193
-0.319827
-0.230052
-0.140759
-0.0568441
0.0211406
0.0839067
0.0815129
0.0639578
-0.0458305
-0.107174
-0.138063
-0.177242
-0.148459
-0.15425
-0.148618
-0.660352
-0.643831
-0.589566
-0.520399
-0.435135
-0.350244
-0.262672
-0.176274
-0.0968584
-0.0228255
0.0395058
0.0380788
0.00844195
-0.0812185
-0.121213
-0.113272
-0.186319
-0.129006
-0.144142
-0.136328
-0.680615
-0.665198
-0.612982
-0.545067
-0.462927
-0.380366
-0.295227
-0.211892
-0.136589
-0.0672788
-0.00543312
-0.00229314
-0.037007
-0.100266
-0.128917
-0.0885262
-0.132931
-0.115804
-0.121905
-0.11881
-0.696837
-0.683061
-0.633464
-0.567655
-0.489462
-0.409076
-0.32683
-0.246862
-0.175226
-0.111517
-0.0509514
-0.0402768
-0.0686239
-0.101518
-0.119432
-0.0958379
-0.110111
-0.11368
-0.114588
-0.114814
-0.708386
-0.696778
-0.65049
-0.587225
-0.513026
-0.435596
-0.356662
-0.280282
-0.211935
-0.154228
-0.0954504
-0.0759162
-0.0922246
-0.0967696
-0.110209
-0.123413
-0.11449
-0.118562
-0.116277
-0.116967
-0.713678
-0.704497
-0.662405
-0.60265
-0.532427
-0.458686
-0.383615
-0.311125
-0.24593
-0.193753
-0.136562
-0.111457
-0.120905
-0.0969814
-0.100661
-0.134038
-0.112903
-0.121883
-0.115742
-0.117868
-0.712932
-0.705903
-0.66815
-0.612266
-0.54641
-0.477154
-0.406463
-0.338052
-0.276239
-0.22817
-0.172813
-0.146603
-0.148694
-0.113518
-0.0832861
-0.112629
-0.0979431
-0.119929
-0.120058
-0.123418
-0.705072
-0.697755
-0.66507
-0.614882
-0.554296
-0.489917
-0.424019
-0.359702
-0.30122
-0.255857
-0.203482
-0.178377
-0.175538
-0.142112
-0.0776945
-0.0852376
-0.105308
-0.12147
-0.126374
-0.128826
-0.684657
-0.676251
-0.651732
-0.608892
-0.554614
-0.495971
-0.435128
-0.374513
-0.318563
-0.274514
-0.22547
-0.204406
-0.218356
-0.281254
-0.383639
-0.461851
-0.475798
-0.443749
-0.409088
-0.384664
-0.642094
-0.634117
-0.625314
-0.594762
-0.548566
-0.495791
-0.439834
-0.381838
-0.326411
-0.28161
-0.234218
-0.204258
-0.289967
-0.444518
-0.683388
-0.827549
-0.837983
-0.809543
-0.764759
-0.713065
-0.600839
-0.597907
-0.597037
-0.57326
-0.536335
-0.490129
-0.437749
-0.381073
-0.323174
-0.273238
-0.224118
-0.157988
-0.160798
-0.212671
-0.30961
-0.317266
-0.241478
-0.172407
-0.103826
-0.0625954
-0.578611
-0.580239
-0.570239
-0.555685
-0.525694
-0.482961
-0.431846
-0.374725
-0.310786
-0.246247
-0.183849
-0.0629048
0.0917703
0.335905
0.572868
0.780073
0.933586
1.0246
1.066
1.10257
-0.547314
-0.54707
-0.543775
-0.541882
-0.51655
-0.476114
-0.424241
-0.364294
-0.293834
-0.211987
-0.12505
0.0146152
0.233896
0.567709
0.901308
1.17645
1.36689
1.4823
1.53982
1.55891
-0.53446
-0.532618
-0.535309
-0.529002
-0.510705
-0.472743
-0.419145
-0.354678
-0.278336
-0.184663
-0.0815822
0.0487269
0.285615
0.606636
0.927416
1.19906
1.39926
1.51962
1.5728
1.58805
-0.522287
-0.521163
-0.52469
-0.517829
-0.507622
-0.469379
-0.414832
-0.347951
-0.268243
-0.16912
-0.0608077
0.0444919
0.263135
0.538556
0.811186
1.04692
1.22991
1.33965
1.38774
1.40118
-0.507477
-0.507455
-0.508613
-0.50698
-0.503776
-0.466427
-0.41288
-0.345267
-0.264579
-0.166161
-0.0618165
0.0176708
0.199498
0.431342
0.651355
0.839974
0.990617
1.08198
1.12146
1.13142
-0.492255
-0.492197
-0.490172
-0.490423
-0.487121
-0.463046
-0.415279
-0.347287
-0.267625
-0.174496
-0.0758294
-0.0143545
0.126464
0.319853
0.494157
0.637656
0.752269
0.822877
0.852924
0.86059
-0.489669
-0.487624
-0.481741
-0.479807
-0.474937
-0.461581
-0.417321
-0.349747
-0.272834
-0.188286
-0.0950208
-0.0431617
0.0582168
0.21591
0.352751
0.460222
0.54423
0.597053
0.618744
0.623105
-0.509171
-0.506237
-0.5028
-0.503687
-0.50179
-0.484212
-0.42409
-0.351952
-0.275615
-0.200508
-0.113585
-0.0661302
0.00142283
0.126394
0.232813
0.313125
0.374591
0.413825
0.428888
0.433966
-0.552822
-0.554062
-0.558015
-0.567415
-0.561398
-0.520062
-0.436254
-0.354078
-0.274846
-0.207406
-0.12823
-0.0832464
-0.0394595
0.0579234
0.138463
0.197535
0.243691
0.274479
0.284901
0.287945
-0.56647
-0.571097
-0.582908
-0.595482
-0.583824
-0.524573
-0.433134
-0.34742
-0.267325
-0.205897
-0.136413
-0.0945485
-0.0652766
0.011725
0.0709093
0.112717
0.147353
0.16922
0.178513
0.181186
-0.486643
-0.492044
-0.509043
-0.518675
-0.511512
-0.462682
-0.390773
-0.318427
-0.247921
-0.193355
-0.136788
-0.100013
-0.0783805
-0.017932
0.0244022
0.0539949
0.0774985
0.0915183
0.0978716
0.0995326
-0.331056
-0.337317
-0.34508
-0.351587
-0.349988
-0.330026
-0.296666
-0.25734
-0.210547
-0.168982
-0.129193
-0.0999327
-0.0807854
-0.0368915
-0.00723721
0.0131751
0.0278804
0.0359828
0.0388827
0.0388899
-0.17344
-0.176088
-0.180696
-0.187498
-0.192456
-0.192918
-0.188605
-0.178888
-0.158724
-0.136868
-0.113549
-0.0935224
-0.076666
-0.0479145
-0.0283886
-0.0154032
-0.00712883
-0.00372492
-0.00345023
-0.00434267
-0.0521397
-0.0535659
-0.0568658
-0.0641835
-0.0748644
-0.0871104
-0.0987182
-0.106688
-0.105844
-0.101834
-0.0916046
-0.0806364
-0.0687389
-0.0515861
-0.0405528
-0.033895
-0.0306859
-0.0305634
-0.0320267
-0.0333069
0.0218088
0.0208168
0.01841
0.0108636
-0.00323312
-0.0212813
-0.0388496
-0.0535148
-0.0623613
-0.0692513
-0.0675302
-0.0629417
-0.0586048
-0.0500416
-0.0455871
-0.0441586
-0.0445918
-0.0465738
-0.04872
-0.0500858
0.0565317
0.0558879
0.0539827
0.0471565
0.0332837
0.0144365
-0.0043962
-0.0211332
-0.0333866
-0.0440478
-0.0463946
-0.0462864
-0.0476651
-0.0454166
-0.0455681
-0.0474215
-0.0500839
-0.0531213
-0.0553511
-0.0566736
0.0681052
0.0675857
0.0660076
0.0603638
0.0486366
0.0320076
0.014349
-0.00261186
-0.0158752
-0.0271529
-0.0306934
-0.0335043
-0.0375185
-0.0390761
-0.0421934
-0.0459025
-0.0494408
-0.0525527
-0.0545614
-0.0557744
0.0671566
0.0667782
0.065553
0.0612324
0.052167
0.0389498
0.0239833
0.00830494
-0.00469045
-0.0160626
-0.020089
-0.0241268
-0.0288537
-0.0323348
-0.0367181
-0.0411051
-0.0447536
-0.0475651
-0.0491894
-0.0502478
0.0604428
0.0601934
0.0592961
0.0561392
0.0494442
0.0395221
0.0277647
0.0145743
0.00311856
-0.00805203
-0.0127268
-0.0168555
-0.0215909
-0.0255637
-0.030289
-0.0345645
-0.037846
-0.0402517
-0.0414574
-0.0423649
0.0516172
0.0514606
0.0508142
0.0485863
0.0438059
0.0365389
0.0276682
0.0172525
0.00816911
-0.00203602
-0.00711459
-0.0107161
-0.0151414
-0.0191514
-0.0236481
-0.0275012
-0.0303573
-0.0323677
-0.0332016
-0.033958
0.0425925
0.0425118
0.0420645
0.0405347
0.0372152
0.03205
0.0255283
0.0174908
0.0107196
0.00209331
-0.00261982
-0.00549473
-0.00939307
-0.0131872
-0.0174127
-0.0209288
-0.0234455
-0.02517
-0.0257701
-0.026394
0.034029
0.0340005
0.0337059
0.0326991
0.030431
0.0268093
0.0221443
0.0160802
0.0113235
0.00451978
0.000880234
-0.00149798
-0.00494615
-0.00830358
-0.0120742
-0.0151397
-0.017355
-0.0188971
-0.0193479
-0.0198407
0.0261936
0.0261751
0.0259721
0.0253128
0.0237923
0.0212922
0.0179832
0.0134581
0.0103259
0.00521093
0.00282672
0.00115386
-0.00194741
-0.00486557
-0.00800348
-0.0104837
-0.0122972
-0.0135536
-0.013908
-0.0143167
0.019215
0.0192052
0.0190659
0.0186526
0.0176767
0.0160422
0.013797
0.0104652
0.00847811
0.00464254
0.0031411
0.00206507
-0.000440819
-0.00266192
-0.00510959
-0.00692644
-0.00818744
-0.00905406
-0.00928285
-0.00963041
0.0129951
0.0129837
0.0129096
0.0126799
0.012109
0.0111222
0.00980737
0.00750762
0.00640402
0.00347013
0.00249662
0.00181445
-0.000104548
-0.00141792
-0.00312758
-0.00429085
-0.00501562
-0.00555369
-0.00576093
-0.00607146
0.00735606
0.00734096
0.00731327
0.00724364
0.00699074
0.00648026
0.00590716
0.00446967
0.00411388
0.00201315
0.00148957
0.00113566
-0.000279355
-0.000560307
-0.00176592
-0.0024534
-0.0027909
-0.00306542
-0.00305898
-0.00326876
0.0024107
0.00243223
0.00246063
0.00249347
0.00246993
0.00227284
0.00218473
0.00146714
0.00162862
0.000553153
0.000584249
0.000673592
-0.000151921
0.000139663
-0.000984576
-0.0015223
-0.00202629
-0.00241944
-0.00215453
-0.00213491
-1.07318
-0.236693
0.0332338
0.308238
0.488109
0.642058
0.765309
0.891132
1.03071
1.11492
-0.0962933
0.308779
0.323796
0.511074
0.633052
0.742498
0.836406
0.920294
0.947245
0.905708
0.277616
0.490225
0.523878
0.659613
0.744078
0.822683
0.887563
0.936321
0.938146
0.952528
0.505041
0.646673
0.68124
0.781764
0.838287
0.894967
0.939325
0.971423
0.980358
1.00414
0.681371
0.781719
0.811408
0.877986
0.922332
0.962707
0.994557
1.01872
1.0284
1.06007
0.82354
0.891737
0.921924
0.964295
1.00014
1.02999
1.0541
1.07481
1.08885
1.11721
0.941984
0.992208
1.01764
1.04537
1.07282
1.09646
1.11633
1.13556
1.15039
1.17695
1.04531
1.08215
1.10312
1.12364
1.14431
1.16363
1.181
1.1991
1.21396
1.23764
1.13904
1.16806
1.18433
1.19954
1.21559
1.23162
1.24716
1.26405
1.27768
1.3
1.22715
1.24757
1.26239
1.27553
1.28908
1.30284
1.31634
1.33092
1.34247
1.36211
1.31253
1.32829
1.34211
1.35391
1.36582
1.37746
1.38859
1.40027
1.40794
1.42474
1.39773
1.41027
1.42398
1.43573
1.44637
1.45616
1.46498
1.47324
1.4768
1.48804
1.48648
1.4973
1.51077
1.5203
1.52787
1.53516
1.54234
1.54882
1.54992
1.55727
1.58488
1.58949
1.59768
1.60242
1.60582
1.61029
1.61629
1.62395
1.62785
1.63773
1.69818
1.68507
1.67778
1.67206
1.66934
1.67068
1.67701
1.68937
1.7042
1.73387
1.82015
1.76411
1.73309
1.7159
1.70768
1.70761
1.71646
1.73607
1.76787
1.83714
)
;

boundaryField
{
    wall-4
    {
        type            zeroGradient;
    }
    pressure-outlet-7
    {
        type            fixedValue;
        value           uniform 0;
    }
    velocity-inlet-6
    {
        type            zeroGradient;
    }
    velocity-inlet-5
    {
        type            zeroGradient;
    }
    frontAndBackPlanes
    {
        type            empty;
    }
}


// ************************************************************************* //
