/*--------------------------------*- C++ -*----------------------------------*\
| =========                 |                                                 |
| \\      /  F ield         | OpenFOAM: The Open Source CFD Toolbox           |
|  \\    /   O peration     | Version:  v2012                                 |
|   \\  /    A nd           | Website:  www.openfoam.com                      |
|    \\/     M anipulation  |                                                 |
\*---------------------------------------------------------------------------*/
FoamFile
{
    version     2.0;
    format      ascii;
    class       volVectorField;
    location    "71";
    object      U;
}
// * * * * * * * * * * * * * * * * * * * * * * * * * * * * * * * * * * * * * //

dimensions      [0 1 -1 0 0 0 0];


internalField   nonuniform List<vector> 
2200
(
(0.878837 -0.0304121 0)
(1.00578 -0.0512788 0)
(1.00327 -0.035399 0)
(1.00023 -0.024433 0)
(0.99985 -0.0166521 0)
(1.00003 -0.010719 0)
(1.00003 -0.00682944 0)
(0.999976 -0.00416533 0)
(0.999865 -0.00216546 0)
(1.00018 -0.000640851 0)
(0.999984 0.00119015 0)
(1.00031 0.0027109 0)
(1.00038 0.0045249 0)
(1.00025 0.00713003 0)
(1.00005 0.0108459 0)
(0.999971 0.016668 0)
(1.00031 0.0243813 0)
(1.00346 0.0348714 0)
(1.00598 0.0513821 0)
(0.879043 0.0302966 0)
(0.712028 -0.03276 0)
(0.996646 -0.0630035 0)
(1.03333 -0.0561331 0)
(1.02495 -0.0464096 0)
(1.01592 -0.0361059 0)
(1.00965 -0.0263653 0)
(1.00593 -0.0181183 0)
(1.00383 -0.0114457 0)
(1.00275 -0.00607831 0)
(1.00231 -0.00165949 0)
(1.00219 0.00245675 0)
(1.00218 0.00693 0)
(1.00323 0.0123893 0)
(1.00552 0.0189212 0)
(1.00944 0.0272318 0)
(1.01555 0.036976 0)
(1.02464 0.0474694 0)
(1.03315 0.057988 0)
(0.996698 0.0631491 0)
(0.711785 0.0330357 0)
(0.535582 -0.0238899 0)
(0.969935 -0.0569171 0)
(1.05643 -0.0547175 0)
(1.05221 -0.0487144 0)
(1.03623 -0.040372 0)
(1.02448 -0.0321926 0)
(1.0159 -0.0239129 0)
(1.01029 -0.015979 0)
(1.00692 -0.0086432 0)
(1.00532 -0.00188529 0)
(1.00533 0.00437553 0)
(1.00723 0.0109276 0)
(1.01049 0.0177849 0)
(1.01574 0.0255186 0)
(1.02404 0.0334824 0)
(1.03607 0.0414529 0)
(1.05215 0.0494441 0)
(1.05629 0.0533196 0)
(0.96918 0.0576619 0)
(0.534331 0.0239444 0)
(0.392428 -0.0136381 0)
(0.911924 -0.0463687 0)
(1.05756 -0.0468266 0)
(1.06967 -0.0442718 0)
(1.05494 -0.0381194 0)
(1.03936 -0.0314479 0)
(1.02763 -0.0246382 0)
(1.01926 -0.0174544 0)
(1.01407 -0.00998853 0)
(1.01151 -0.00251514 0)
(1.01129 0.00513289 0)
(1.01308 0.0125363 0)
(1.01802 0.0199592 0)
(1.02653 0.0267325 0)
(1.03848 0.0331396 0)
(1.05396 0.0395706 0)
(1.06819 0.0456407 0)
(1.05546 0.0482996 0)
(0.909883 0.0469933 0)
(0.389871 0.0137801 0)
(0.307845 -0.00451071 0)
(0.846833 -0.032361 0)
(1.04941 -0.0398936 0)
(1.07945 -0.0381167 0)
(1.06824 -0.0334329 0)
(1.05176 -0.0277949 0)
(1.03831 -0.0223921 0)
(1.02794 -0.0162711 0)
(1.02067 -0.00928381 0)
(1.01664 -0.00152341 0)
(1.01658 0.00620755 0)
(1.02059 0.013493 0)
(1.02758 0.0197521 0)
(1.03733 0.0254924 0)
(1.05018 0.0304486 0)
(1.06662 0.0357851 0)
(1.07767 0.040127 0)
(1.04719 0.0417996 0)
(0.842855 0.0330035 0)
(0.30363 0.00474376 0)
(0.264501 0.000105743 0)
(0.789305 -0.0200436 0)
(1.03367 -0.031406 0)
(1.0838 -0.031956 0)
(1.07745 -0.0286622 0)
(1.06092 -0.023776 0)
(1.04736 -0.0192661 0)
(1.03664 -0.0142091 0)
(1.02903 -0.00820616 0)
(1.02467 -0.00127904 0)
(1.02408 0.00620709 0)
(1.02723 0.0130019 0)
(1.03426 0.0188355 0)
(1.04493 0.0232874 0)
(1.0586 0.0272133 0)
(1.07484 0.0315977 0)
(1.08027 0.0343252 0)
(1.02909 0.0334022 0)
(0.782424 0.020775 0)
(0.258574 0.000127932 0)
(0.240579 0.00107247 0)
(0.738651 -0.0122536 0)
(1.01383 -0.0249252 0)
(1.0841 -0.0266718 0)
(1.08312 -0.0243487 0)
(1.06793 -0.0201515 0)
(1.05431 -0.0161237 0)
(1.04326 -0.011506 0)
(1.03482 -0.00601171 0)
(1.02964 0.000483434 0)
(1.02937 0.00711054 0)
(1.0339 0.01287 0)
(1.04162 0.0174134 0)
(1.05174 0.0214165 0)
(1.06466 0.024789 0)
(1.07936 0.028237 0)
(1.07983 0.0297898 0)
(1.00737 0.0273005 0)
(0.7286 0.0131725 0)
(0.23286 -0.000830808 0)
(0.226371 0.000966076 0)
(0.696061 -0.00800017 0)
(0.993572 -0.02065 0)
(1.08259 -0.0229799 0)
(1.08711 -0.0211191 0)
(1.07356 -0.0175793 0)
(1.0601 -0.0137613 0)
(1.0496 -0.0095099 0)
(1.04185 -0.00456635 0)
(1.03708 0.00105947 0)
(1.03601 0.00709189 0)
(1.03898 0.0125238 0)
(1.04565 0.0169693 0)
(1.05571 0.0202916 0)
(1.06914 0.0232571 0)
(1.08183 0.0259455 0)
(1.07546 0.026919 0)
(0.983007 0.0235387 0)
(0.681379 0.00916766 0)
(0.216351 -0.000705072 0)
(0.216818 0.000628724 0)
(0.660643 -0.00563036 0)
(0.972944 -0.0175308 0)
(1.07972 -0.0200724 0)
(1.09042 -0.0184396 0)
(1.07841 -0.0152035 0)
(1.06502 -0.0114824 0)
(1.05444 -0.00716884 0)
(1.04624 -0.00226515 0)
(1.04082 0.00318023 0)
(1.04012 0.00851477 0)
(1.04395 0.0130579 0)
(1.05074 0.0166273 0)
(1.06004 0.019916 0)
(1.07239 0.022596 0)
(1.08323 0.0247605 0)
(1.07071 0.0251588 0)
(0.958866 0.021128 0)
(0.641141 0.00712068 0)
(0.204174 -0.000327282 0)
(0.209792 0.000305547 0)
(0.63245 -0.00415971 0)
(0.954457 -0.0148779 0)
(1.07698 -0.0177489 0)
(1.09379 -0.0163915 0)
(1.08324 -0.0134625 0)
(1.06974 -0.00983912 0)
(1.05925 -0.00580659 0)
(1.05158 -0.00116823 0)
(1.04676 0.00388712 0)
(1.04512 0.009106 0)
(1.04717 0.013656 0)
(1.053 0.0174285 0)
(1.06236 0.0200863 0)
(1.0754 0.0224441 0)
(1.08421 0.0241056 0)
(1.06354 0.024059 0)
(0.933883 0.0192844 0)
(0.605966 0.00599131 0)
(0.19361 5.0962e-05 0)
(0.204 9.39886e-05 0)
(0.609205 -0.00310143 0)
(0.936494 -0.0124305 0)
(1.07373 -0.0153964 0)
(1.09703 -0.0141817 0)
(1.08795 -0.0113185 0)
(1.07448 -0.00768183 0)
(1.06375 -0.00347448 0)
(1.05552 0.0013846 0)
(1.04981 0.00650401 0)
(1.04829 0.0111252 0)
(1.05112 0.0150803 0)
(1.05706 0.0180634 0)
(1.0659 0.0208044 0)
(1.07771 0.0228597 0)
(1.0844 0.0240778 0)
(1.05667 0.0232998 0)
(0.909837 0.0177911 0)
(0.575418 0.00535755 0)
(0.183853 0.000334887 0)
(0.199625 2.30141e-05 0)
(0.591423 -0.00221363 0)
(0.921521 -0.0100703 0)
(1.07117 -0.0131493 0)
(1.10065 -0.0120356 0)
(1.09297 -0.00928919 0)
(1.07927 -0.00567324 0)
(1.06821 -0.00177291 0)
(1.0598 0.00262437 0)
(1.05425 0.00746922 0)
(1.05186 0.0126383 0)
(1.05316 0.0166938 0)
(1.05842 0.0198093 0)
(1.0675 0.0217077 0)
(1.08 0.0234048 0)
(1.08406 0.0242082 0)
(1.04734 0.0228505 0)
(0.88493 0.0166399 0)
(0.547424 0.00500112 0)
(0.17423 0.000506035 0)
(0.196113 3.55733e-05 0)
(0.576828 -0.00151074 0)
(0.907094 -0.007958 0)
(1.06836 -0.0108588 0)
(1.10421 -0.00970964 0)
(1.09804 -0.00690055 0)
(1.08438 -0.00327241 0)
(1.07302 0.000910393 0)
(1.06417 0.00583631 0)
(1.05783 0.0111674 0)
(1.0551 0.0154606 0)
(1.0567 0.0188899 0)
(1.062 0.0212465 0)
(1.07045 0.0232244 0)
(1.08126 0.0244225 0)
(1.08319 0.0247831 0)
(1.03797 0.0228047 0)
(0.860466 0.0158565 0)
(0.521785 0.00486411 0)
(0.164838 0.000597115 0)
(0.194203 7.35441e-05 0)
(0.566743 -0.000679752 0)
(0.896195 -0.00570408 0)
(1.06642 -0.00829246 0)
(1.10806 -0.0069525 0)
(1.10326 -0.00400772 0)
(1.08946 -0.000167805 0)
(1.07771 0.00383083 0)
(1.06826 0.00824721 0)
(1.06106 0.0127474 0)
(1.05745 0.0175668 0)
(1.05805 0.021231 0)
(1.06263 0.0235659 0)
(1.07141 0.0247024 0)
(1.08238 0.0256383 0)
(1.08101 0.0255153 0)
(1.02578 0.0229866 0)
(0.834693 0.0153835 0)
(0.496895 0.00481289 0)
(0.155346 0.000628242 0)
(0.193497 0.000109624 0)
(0.559496 -0.000156889 0)
(0.886339 -0.00366768 0)
(1.06498 -0.00580396 0)
(1.11224 -0.00425464 0)
(1.10895 -0.0011184 0)
(1.0952 0.00276081 0)
(1.08297 0.0070823 0)
(1.07294 0.0120803 0)
(1.06555 0.0176782 0)
(1.06136 0.0219308 0)
(1.06139 0.0246706 0)
(1.06577 0.0262779 0)
(1.07372 0.0274149 0)
(1.08211 0.0277041 0)
(1.07823 0.0271014 0)
(1.01329 0.0237956 0)
(0.808777 0.0153462 0)
(0.47288 0.00491374 0)
(0.145904 0.000656361 0)
(0.194195 7.31863e-05 0)
(0.555632 0.000920177 0)
(0.880237 -0.00144878 0)
(1.06461 -0.00294556 0)
(1.11685 -0.00094954 0)
(1.11473 0.00251128 0)
(1.10076 0.00691997 0)
(1.08817 0.0115191 0)
(1.07755 0.0163991 0)
(1.06844 0.020888 0)
(1.06281 0.0251685 0)
(1.06196 0.0278679 0)
(1.06539 0.0293668 0)
(1.07346 0.0298984 0)
(1.08207 0.0300838 0)
(1.07341 0.0289435 0)
(0.997505 0.0247747 0)
(0.781032 0.0155989 0)
(0.448406 0.00507398 0)
(0.136109 0.000670111 0)
(0.1965 0.00031796 0)
(0.556156 0.00159926 0)
(0.876136 0.000988126 0)
(1.0658 0.000368049 0)
(1.12224 0.00269952 0)
(1.12135 0.00645737 0)
(1.10733 0.010965 0)
(1.09393 0.0159066 0)
(1.0822 0.0212375 0)
(1.07274 0.0269183 0)
(1.06673 0.0312429 0)
(1.06487 0.0334921 0)
(1.06774 0.0341656 0)
(1.07495 0.0344783 0)
(1.07993 0.033627 0)
(1.0677 0.0317145 0)
(0.98098 0.0265906 0)
(0.752293 0.0162915 0)
(0.423549 0.00539683 0)
(0.126013 0.000699739 0)
(0.200886 0.000686644 0)
(0.559192 0.00244922 0)
(0.876933 0.00362549 0)
(1.06855 0.00373839 0)
(1.12845 0.00684235 0)
(1.1285 0.0110461 0)
(1.11405 0.0163351 0)
(1.1002 0.0218826 0)
(1.08805 0.0277083 0)
(1.07699 0.0329171 0)
(1.06813 0.036124 0)
(1.0649 0.0379995 0)
(1.06645 0.0388127 0)
(1.07289 0.0383422 0)
(1.07848 0.0376757 0)
(1.05974 0.0350003 0)
(0.960353 0.0285636 0)
(0.720719 0.0173149 0)
(0.397052 0.00578829 0)
(0.115189 0.000718621 0)
(0.207742 0.000911717 0)
(0.566874 0.00365166 0)
(0.881413 0.00611746 0)
(1.07382 0.00815483 0)
(1.13561 0.0117959 0)
(1.13661 0.0166253 0)
(1.1218 0.0222767 0)
(1.10684 0.0283668 0)
(1.09277 0.0344921 0)
(1.07974 0.0401703 0)
(1.07091 0.0447779 0)
(1.06684 0.0463709 0)
(1.0679 0.0460493 0)
(1.07341 0.0451774 0)
(1.07378 0.0430609 0)
(1.05002 0.0392363 0)
(0.938306 0.0316034 0)
(0.687084 0.0187742 0)
(0.368994 0.00629566 0)
(0.103715 0.000741933 0)
(0.216288 0.00107494 0)
(0.577968 0.00489968 0)
(0.889729 0.00915892 0)
(1.08174 0.0125267 0)
(1.14437 0.0174339 0)
(1.14584 0.0231285 0)
(1.13017 0.0298855 0)
(1.11422 0.0367439 0)
(1.09938 0.043846 0)
(1.08533 0.0499711 0)
(1.07295 0.0533253 0)
(1.0662 0.0536786 0)
(1.06504 0.0533315 0)
(1.06891 0.0513824 0)
(1.07037 0.0493246 0)
(1.03758 0.0445233 0)
(0.910582 0.0348135 0)
(0.648814 0.0205255 0)
(0.338018 0.00682322 0)
(0.0912176 0.000753806 0)
(0.229129 0.00142062 0)
(0.597233 0.00686209 0)
(0.905535 0.0137248 0)
(1.09332 0.0190439 0)
(1.15504 0.0245642 0)
(1.15666 0.0313004 0)
(1.13995 0.0388482 0)
(1.12238 0.0465859 0)
(1.10489 0.0539365 0)
(1.08746 0.0599933 0)
(1.07322 0.063302 0)
(1.0665 0.0642242 0)
(1.06529 0.0629586 0)
(1.06823 0.06062 0)
(1.06229 0.057102 0)
(1.02203 0.0504407 0)
(0.880296 0.0391944 0)
(0.607349 0.0226036 0)
(0.30467 0.00735983 0)
(0.0779929 0.000752781 0)
(0.245048 0.00201572 0)
(0.621106 0.00866856 0)
(0.927106 0.0182256 0)
(1.10916 0.0258937 0)
(1.16799 0.0334987 0)
(1.16916 0.0414645 0)
(1.15058 0.0503797 0)
(1.13091 0.0590814 0)
(1.11141 0.0673813 0)
(1.09216 0.0738972 0)
(1.07579 0.0772061 0)
(1.06525 0.0761834 0)
(1.06083 0.0736813 0)
(1.06108 0.0700434 0)
(1.05566 0.065713 0)
(1.003 0.0578974 0)
(0.842263 0.0435508 0)
(0.558863 0.0247144 0)
(0.267438 0.00776156 0)
(0.0637776 0.000728664 0)
(0.267406 0.00284353 0)
(0.654343 0.0125062 0)
(0.956101 0.0250639 0)
(1.12945 0.035547 0)
(1.18392 0.0442156 0)
(1.18392 0.0542464 0)
(1.16309 0.0644331 0)
(1.14079 0.0742471 0)
(1.11794 0.0828854 0)
(1.09464 0.0889183 0)
(1.07425 0.0907236 0)
(1.06273 0.0890635 0)
(1.05903 0.0864921 0)
(1.05852 0.0824779 0)
(1.04311 0.0764378 0)
(0.97857 0.0658669 0)
(0.799681 0.0491234 0)
(0.506144 0.0269701 0)
(0.227908 0.00802605 0)
(0.0492673 0.00070732 0)
(0.299193 0.00378234 0)
(0.700708 0.0156496 0)
(0.996335 0.0334095 0)
(1.15661 0.0473073 0)
(1.20333 0.0589883 0)
(1.20061 0.0711365 0)
(1.1759 0.0830897 0)
(1.14994 0.0937491 0)
(1.12357 0.102533 0)
(1.09715 0.107802 0)
(1.07457 0.10868 0)
(1.06067 0.106022 0)
(1.05259 0.101009 0)
(1.0481 0.09479 0)
(1.03091 0.0875502 0)
(0.949458 0.0750472 0)
(0.746554 0.0539306 0)
(0.443556 0.0284332 0)
(0.18447 0.00783802 0)
(0.0342379 0.000600424 0)
(0.33609 0.00716865 0)
(0.758975 0.0251214 0)
(1.04526 0.0470345 0)
(1.18932 0.0655387 0)
(1.22675 0.0788367 0)
(1.21973 0.0939127 0)
(1.19059 0.106679 0)
(1.16068 0.117375 0)
(1.12997 0.12521 0)
(1.09902 0.129089 0)
(1.0724 0.128174 0)
(1.05535 0.122945 0)
(1.04816 0.117204 0)
(1.04272 0.11074 0)
(1.01161 0.101005 0)
(0.911344 0.0842917 0)
(0.686172 0.0595077 0)
(0.378021 0.0298231 0)
(0.141313 0.00746164 0)
(0.0208035 0.000567146 0)
(0.417011 0.010906 0)
(0.847568 0.0358084 0)
(1.11347 0.0680974 0)
(1.23076 0.0909295 0)
(1.25455 0.10721 6.1107e-34)
(1.24044 0.124516 -2.76378e-34)
(1.2046 0.137542 0)
(1.16929 0.147254 0)
(1.13379 0.153502 0)
(1.09883 0.154743 0)
(1.06916 0.15028 0)
(1.05129 0.143201 0)
(1.03988 0.135421 0)
(1.0276 0.125816 0)
(0.990419 0.113901 0)
(0.866671 0.0938007 0)
(0.611977 0.0627904 0)
(0.298432 0.0286389 0)
(0.0928386 0.00675813 0)
(0.00645989 0.000718528 0)
(0.488868 0.0260771 4.42906e-20)
(0.95002 0.0608081 -3.35864e-20)
(1.1831 0.102706 0)
(1.27223 0.130196 2.62712e-20)
(1.28342 0.146519 -2.13034e-20)
(1.25972 0.165402 2.91607e-34)
(1.21718 0.176277 0)
(1.17705 0.18375 1.56206e-20)
(1.13648 0.186993 -5.13353e-20)
(1.0964 0.185095 1.05036e-20)
(1.0633 0.178702 0)
(1.04136 0.169123 -2.67823e-20)
(1.03 0.158716 -3.22961e-20)
(1.01571 0.14865 5.66041e-20)
(0.952922 0.132452 -4.47064e-20)
(0.792194 0.103514 0)
(0.50436 0.0644804 -1.6053e-20)
(0.205517 0.0261109 0)
(0.0447113 0.00634603 -8.88298e-20)
(-0.00877294 0.000271829 1.04689e-19)
(0.525635 0.0543228 -5.87091e-21)
(1.01783 0.103236 9.82822e-20)
(1.23696 0.154095 -4.87822e-21)
(1.30761 0.178561 -6.32756e-20)
(1.30946 0.195993 -4.48971e-20)
(1.27685 0.213182 7.30347e-20)
(1.22774 0.221575 0)
(1.18171 0.226397 0)
(1.13577 0.227278 8.14163e-20)
(1.09145 0.222844 0)
(1.05417 0.212508 9.62095e-20)
(1.03033 0.199295 2.87381e-20)
(1.01335 0.188356 6.17931e-22)
(0.983716 0.173611 -6.12078e-20)
(0.90789 0.151231 0)
(0.718671 0.115687 0)
(0.416105 0.0653788 -2.60751e-19)
(0.143852 0.0230724 6.55729e-19)
(0.011568 0.00410126 -3.87578e-19)
(-0.0200336 -0.00153363 -4.5645e-19)
(0.532519 0.0783869 -5.15111e-20)
(1.05025 0.159959 2.02812e-20)
(1.27113 0.213918 1.15522e-20)
(1.33443 0.237565 1.09764e-19)
(1.32931 0.25447 1.46861e-20)
(1.28919 0.267118 -1.89616e-19)
(1.23464 0.271021 6.49126e-20)
(1.18367 0.272199 0)
(1.13243 0.269413 -1.7162e-19)
(1.0822 0.260648 1.5306e-19)
(1.04017 0.2468 -2.59502e-19)
(1.01332 0.232875 1.21676e-19)
(0.994987 0.218435 -7.89372e-20)
(0.96608 0.201817 1.78127e-19)
(0.870345 0.175472 0)
(0.664261 0.127272 -6.47153e-20)
(0.361992 0.0670255 0)
(0.116818 0.0217068 3.56511e-19)
(-0.00352886 0.00157645 -8.44352e-19)
(-0.025919 -0.00358436 5.28449e-19)
(0.530521 0.108626 1.29822e-19)
(1.07792 0.220091 -5.82872e-20)
(1.29682 0.281384 -1.29077e-20)
(1.35286 0.303344 0)
(1.34256 0.3168 -8.14144e-20)
(1.29749 0.324069 1.00637e-19)
(1.23812 0.323536 -6.91824e-20)
(1.18195 0.320689 0)
(1.12589 0.313731 1.21822e-19)
(1.07216 0.301058 -1.07445e-19)
(1.02758 0.283834 2.23949e-19)
(0.997895 0.266238 0)
(0.974931 0.249391 -1.67462e-19)
(0.933703 0.228195 9.44622e-20)
(0.836057 0.193041 2.37146e-19)
(0.625792 0.139048 -2.0858e-19)
(0.336017 0.0721931 3.28669e-19)
(0.109272 0.0229514 -7.27754e-19)
(-0.010277 -0.000666294 4.59989e-19)
(-0.0301107 -0.0058791 -5.75151e-19)
(0.51454 0.132917 -3.5856e-20)
(1.07786 0.270901 2.52022e-20)
(1.30499 0.344735 -4.31443e-20)
(1.362 0.368462 9.02003e-20)
(1.34864 0.380973 -8.75838e-20)
(1.29967 0.383189 3.12269e-20)
(1.23675 0.377499 3.84928e-21)
(1.17717 0.369911 -1.36104e-19)
(1.11723 0.358338 -1.27089e-19)
(1.05838 0.340831 -2.29929e-19)
(1.00913 0.319165 -4.8121e-19)
(0.976271 0.298285 -1.48491e-19)
(0.952479 0.278031 2.23639e-21)
(0.915613 0.254776 -3.22357e-19)
(0.810062 0.217687 -4.79488e-21)
(0.601583 0.152647 3.02806e-19)
(0.329182 0.0793037 -9.04472e-20)
(0.110552 0.0258998 -5.25762e-20)
(-0.00861126 -0.00263845 0)
(-0.0310442 -0.00764025 1.21955e-18)
(0.500436 0.155084 0)
(1.07885 0.324338 1.11746e-21)
(1.3098 0.410841 0)
(1.36461 0.433734 -1.30376e-20)
(1.34874 0.443813 8.30615e-20)
(1.29778 0.441302 -7.37009e-20)
(1.2323 0.431357 7.50791e-20)
(1.16922 0.419583 2.23711e-19)
(1.10565 0.403688 -7.069e-20)
(1.04398 0.381775 1.13506e-19)
(0.992998 0.356213 2.58493e-19)
(0.958348 0.332105 3.23725e-19)
(0.929797 0.309216 -1.94911e-19)
(0.883101 0.282051 3.48906e-19)
(0.782723 0.236413 -2.76429e-19)
(0.582244 0.169849 0)
(0.32472 0.0898275 -6.87039e-19)
(0.117792 0.0308553 9.26288e-19)
(-0.00107669 -0.00193023 6.90974e-20)
(-0.0284818 -0.00865365 -1.28967e-18)
(0.481444 0.173732 -5.20846e-21)
(1.06396 0.368774 -2.79489e-20)
(1.30428 0.469213 3.07374e-20)
(1.36185 0.494976 -6.16973e-20)
(1.34437 0.504974 7.06037e-20)
(1.29136 0.498551 -7.04145e-20)
(1.22365 0.484437 1.47549e-19)
(1.1584 0.468318 -6.62701e-20)
(1.09213 0.447902 -2.84712e-19)
(1.0269 0.421312 -3.62915e-23)
(0.972099 0.391789 -2.80894e-19)
(0.933723 0.363649 -3.48431e-19)
(0.904703 0.337435 2.15543e-19)
(0.86439 0.308779 -1.25371e-19)
(0.759409 0.263985 3.00902e-19)
(0.566645 0.186938 0)
(0.324496 0.103349 -4.27818e-19)
(0.126909 0.0379681 6.3188e-19)
(0.00829035 0.000756978 1.19466e-18)
(-0.0244984 -0.00875595 -1.40512e-18)
(0.469284 0.192772 -1.13862e-19)
(1.0562 0.416799 5.18194e-20)
(1.29865 0.52932 -1.76036e-20)
(1.35519 0.555257 6.29046e-20)
(1.33596 0.563626 1.22737e-20)
(1.28204 0.553455 -1.36701e-19)
(1.21298 0.535843 -8.61713e-20)
(1.1456 0.515971 -8.58484e-20)
(1.07697 0.491703 -1.61186e-19)
(1.00981 0.461266 2.59578e-19)
(0.952624 0.427461 2.83316e-19)
(0.912428 0.396114 5.5279e-19)
(0.881371 0.36834 0)
(0.831993 0.336347 6.33681e-21)
(0.734585 0.282488 -8.27659e-19)
(0.552012 0.206032 1.94709e-19)
(0.323899 0.116717 9.29482e-19)
(0.135644 0.0463697 -2.74295e-19)
(0.0182159 0.0046467 5.68574e-19)
(-0.0198376 -0.00811535 -4.73747e-20)
(0.455083 0.208386 5.90618e-21)
(1.03834 0.45581 6.92751e-20)
(1.28704 0.581958 2.98085e-22)
(1.34566 0.610945 5.45428e-20)
(1.32543 0.619469 -1.256e-19)
(1.27025 0.606184 1.34519e-19)
(1.19977 0.585282 8.90446e-20)
(1.13108 0.56186 2.55427e-19)
(1.0604 0.533686 3.22575e-19)
(0.98961 0.499117 -3.01449e-19)
(0.928852 0.461453 0)
(0.8863 0.42636 -2.09822e-19)
(0.854609 0.394415 2.409e-19)
(0.813238 0.361609 3.04362e-19)
(0.713359 0.310134 -1.76282e-19)
(0.538419 0.223279 -4.27229e-19)
(0.323379 0.131078 -1.27109e-19)
(0.143283 0.0555021 -2.06553e-21)
(0.0273784 0.00938941 0)
(-0.015167 -0.00697073 0)
(0.447435 0.225868 -9.43632e-20)
(1.02839 0.498526 0)
(1.27662 0.635891 1.61638e-20)
(1.33395 0.665611 -1.96535e-20)
(1.31239 0.672697 1.45772e-19)
(1.25673 0.656389 -3.63991e-20)
(1.18549 0.632635 9.04798e-20)
(1.11522 0.60601 -1.72334e-19)
(1.04232 0.574871 2.44801e-19)
(0.969817 0.537028 -1.00339e-19)
(0.907878 0.495246 1.62876e-19)
(0.864374 0.456494 6.6671e-19)
(0.830905 0.42454 1.42426e-20)
(0.781119 0.387573 -3.18163e-19)
(0.689736 0.326532 5.88346e-19)
(0.523335 0.242472 3.10725e-21)
(0.320093 0.144403 1.3599e-19)
(0.148434 0.064857 -6.48122e-19)
(0.034757 0.0142781 6.67742e-19)
(-0.0110226 -0.00561479 -7.86579e-19)
(0.439027 0.240625 3.12952e-23)
(1.0125 0.533388 0)
(1.26248 0.682566 0)
(1.32083 0.715626 5.33115e-21)
(1.29868 0.722819 -4.10887e-20)
(1.24217 0.703948 6.15889e-20)
(1.16981 0.677582 -1.66209e-19)
(1.09845 0.648288 0)
(1.02413 0.613972 -3.61498e-19)
(0.949551 0.572603 4.37546e-19)
(0.884424 0.527269 4.66866e-19)
(0.837929 0.485842 -2.44857e-19)
(0.803621 0.448627 -2.9714e-19)
(0.762541 0.409667 6.97124e-19)
(0.668122 0.35284 -2.09469e-19)
(0.508127 0.257902 -2.49138e-19)
(0.315768 0.157543 -1.48811e-19)
(0.151008 0.0734104 -7.01009e-19)
(0.0400607 0.0187542 1.02751e-19)
(-0.00764828 -0.00428402 8.52336e-19)
(0.433333 0.257406 -4.48917e-20)
(1.00244 0.571406 -6.09825e-20)
(1.25004 0.730331 2.3928e-20)
(1.30662 0.764551 -2.01931e-22)
(1.28347 0.770441 -4.89431e-20)
(1.22658 0.749195 9.50755e-20)
(1.15375 0.720573 0)
(1.08146 0.688548 1.05044e-19)
(1.00582 0.651945 -8.28273e-20)
(0.929535 0.608028 7.31424e-19)
(0.861963 0.558856 -1.04808e-19)
(0.815181 0.513728 1.21426e-19)
(0.78061 0.476171 0)
(0.730423 0.43317 -3.77681e-19)
(0.643996 0.365113 4.57534e-19)
(0.491161 0.274644 0)
(0.308096 0.168053 -3.20291e-19)
(0.150818 0.0807992 9.43001e-19)
(0.0431816 0.0224899 1.121e-19)
(-0.00510489 -0.00312815 -1.05148e-18)
(0.428671 0.274725 -1.10507e-19)
(0.988921 0.602976 1.39412e-19)
(1.23513 0.771317 0)
(1.29194 0.808854 3.16032e-20)
(1.26843 0.814943 0)
(1.21095 0.791655 -1.27565e-19)
(1.13747 0.760918 0)
(1.06459 0.726945 0)
(0.987673 0.687945 -1.11063e-19)
(0.908907 0.641184 -6.9561e-19)
(0.838641 0.58916 -8.64153e-19)
(0.788795 0.541496 1.42615e-19)
(0.75223 0.497278 5.15691e-19)
(0.711473 0.451032 4.16535e-19)
(0.621648 0.388023 -1.46911e-18)
(0.474448 0.2853 -5.85834e-19)
(0.299704 0.177819 3.43711e-19)
(0.148894 0.0865327 0)
(0.0446108 0.0254264 9.64264e-19)
(-0.00326817 -0.00220942 -1.13457e-18)
(0.426366 0.290361 1.29639e-19)
(0.980415 0.637322 -1.60134e-19)
(1.2221 0.813628 0)
(1.27695 0.852145 -1.14962e-20)
(1.25265 0.85711 -7.10333e-21)
(1.19495 0.832013 0)
(1.1213 0.79955 5.16773e-20)
(1.04775 0.763334 7.38626e-20)
(0.969521 0.722626 -2.0803e-19)
(0.889032 0.673979 9.19073e-20)
(0.816491 0.618668 0)
(0.765469 0.56671 5.9177e-19)
(0.728984 0.521819 6.4903e-21)
(0.678879 0.47135 2.24935e-19)
(0.59746 0.394246 2.66419e-19)
(0.456738 0.297583 0)
(0.289699 0.184065 -5.59161e-19)
(0.145055 0.0909055 1.09729e-18)
(0.0446769 0.0273545 -1.16747e-18)
(-0.0021831 -0.00158223 2.44556e-18)
(0.424295 0.305142 0)
(0.968658 0.665499 0)
(1.20748 0.849473 -7.94537e-20)
(1.26211 0.890975 0)
(1.23755 0.896292 0)
(1.17948 0.869626 -1.00467e-19)
(1.10544 0.835471 5.28434e-20)
(1.03136 0.797874 1.79593e-20)
(0.951854 0.755452 -4.72449e-20)
(0.868982 0.704706 0)
(0.793455 0.647407 -1.32424e-19)
(0.738909 0.593421 -4.82764e-19)
(0.698852 0.540425 -5.82183e-19)
(0.658973 0.483953 -2.34286e-19)
(0.57472 0.41268 2.88601e-19)
(0.439259 0.301945 -6.79488e-19)
(0.280311 0.189335 1.2013e-18)
(0.14072 0.093022 1.4226e-21)
(0.0439597 0.0292691 -1.11568e-18)
(-0.00126127 -0.000417595 -1.65004e-19)
(0.423022 0.319006 0)
(0.960997 0.696434 -1.28693e-19)
(1.19495 0.886791 9.58608e-20)
(1.24744 0.929027 0)
(1.22218 0.933361 0)
(1.16393 0.905328 1.98947e-19)
(1.08979 0.869927 0)
(1.01512 0.830537 0)
(0.934467 0.786886 -4.58044e-19)
(0.849962 0.734948 1.28562e-19)
(0.771898 0.675094 -1.17522e-18)
(0.715038 0.616353 0)
(0.675052 0.562605 -6.35119e-19)
(0.624541 0.500998 9.70461e-21)
(0.549405 0.411129 -9.30713e-19)
(0.422362 0.306863 3.6523e-19)
(0.272184 0.188301 1.1706e-21)
(0.139648 0.0921745 -1.26252e-18)
(0.0444234 0.0269279 5.99e-19)
(-0.0031512 -0.00331969 1.7651e-19)
(0.421482 0.332645 0)
(0.95067 0.721868 -1.72734e-19)
(1.18131 0.918015 1.00669e-19)
(1.2332 0.962892 1.44258e-19)
(1.20768 0.967671 -3.93381e-21)
(1.14914 0.938446 1.96302e-20)
(1.07475 0.901716 -2.91873e-20)
(0.99972 0.861421 4.30497e-19)
(0.917946 0.81664 4.89977e-19)
(0.831113 0.763385 9.78318e-19)
(0.749707 0.70247 9.7643e-19)
(0.688408 0.642397 1.72241e-19)
(0.642572 0.579773 9.13185e-19)
(0.602178 0.508427 5.64607e-19)
(0.524266 0.423409 6.677e-19)
(0.405429 0.300719 -3.99437e-19)
(0.265576 0.181875 -4.57199e-19)
(0.144854 0.0917834 5.44759e-19)
(0.0549251 0.0385603 -3.22084e-19)
(0.00589715 0.00820932 5.72592e-19)
(0.420411 0.345779 2.40222e-19)
(0.943981 0.749999 2.70904e-19)
(1.1697 0.951032 5.734e-20)
(1.21932 0.996306 1.53194e-20)
(1.19315 1.00013 -2.1867e-20)
(1.13447 0.969836 -5.46678e-20)
(1.06009 0.93227 2.77694e-20)
(0.984639 0.890645 -1.86909e-20)
(0.901902 0.845041 -5.71903e-19)
(0.813498 0.791171 -1.06234e-18)
(0.729368 0.728685 6.78143e-20)
(0.66436 0.664144 0)
(0.617748 0.600767 0)
(0.56353 0.523905 -2.9504e-19)
(0.493895 0.412182 -1.09665e-18)
(0.386484 0.29277 8.60613e-19)
(0.26676 0.164739 5.02478e-19)
(0.160228 0.0682692 0)
(0.0737989 0.00581144 1.03097e-18)
(-0.000462607 -0.0202968 -6.09875e-19)
(0.419066 0.358586 -1.27542e-19)
(0.934963 0.772855 1.12222e-19)
(1.1571 0.978234 -1.36565e-19)
(1.20598 1.02578 -1.16439e-19)
(1.17957 1.03007 -2.34647e-20)
(1.1207 0.998876 -1.73954e-20)
(1.04626 0.960289 0)
(0.970652 0.918154 -5.41959e-19)
(0.886935 0.871903 6.87225e-20)
(0.796231 0.817361 0)
(0.708529 0.754988 0)
(0.638435 0.690402 1.10756e-19)
(0.58263 0.618062 1.48767e-19)
(0.536412 0.527961 -3.19514e-19)
(0.461813 0.420532 7.86717e-19)
(0.361197 0.270915 -9.38469e-19)
(0.254608 0.138966 -1.08022e-18)
(0.187296 0.0602558 9.57464e-19)
(0.147426 0.0635531 -3.6633e-19)
(0.108486 0.073112 2.13108e-19)
(0.418133 0.37055 1.57393e-19)
(0.929092 0.798209 0)
(1.1464 1.00752 0)
(1.19308 1.05511 -3.28942e-20)
(1.16612 1.05842 2.66281e-20)
(1.10722 1.02635 -1.95188e-20)
(1.03292 0.987261 1.29063e-19)
(0.957008 0.944202 5.54533e-19)
(0.872438 0.897453 1.03918e-18)
(0.780349 0.842777 -8.0622e-20)
(0.690062 0.779801 1.67302e-19)
(0.615229 0.711715 -9.93908e-19)
(0.557388 0.639789 -9.93735e-19)
(0.49142 0.545862 -1.72122e-19)
(0.41612 0.401693 0)
(0.328206 0.257045 -3.77271e-21)
(0.239968 0.0633728 5.97182e-19)
(0.237915 -0.045679 -1.00129e-18)
(0.206137 -0.116102 7.60591e-19)
(0.0887592 -0.101546 6.29233e-19)
(0.416748 0.382281 -3.46661e-19)
(0.9209 0.818424 -1.55533e-19)
(1.13465 1.0312 6.86857e-21)
(1.18063 1.08087 6.33637e-20)
(1.15349 1.08477 0)
(1.09448 1.05211 -4.03969e-20)
(1.02019 1.01232 -1.88191e-19)
(0.944177 0.969131 -2.20946e-21)
(0.85871 0.922226 -5.4451e-19)
(0.764407 0.867512 -7.92734e-20)
(0.670296 0.805848 7.36338e-20)
(0.590086 0.740064 8.73448e-19)
(0.518953 0.660275 9.69055e-19)
(0.457291 0.54982 1.68413e-19)
(0.374568 0.417299 8.57233e-19)
(0.267955 0.219964 0)
(0.142348 0.0407786 0)
(-0.0160263 0.16696 6.82243e-19)
(-0.0786161 0.629145 -2.64479e-20)
(0.0103355 1.54706 -8.49306e-19)
(0.415887 0.393223 1.90945e-19)
(0.915652 0.841414 4.40268e-19)
(1.12471 1.05762 -6.11101e-19)
(1.16855 1.10722 3.133e-19)
(1.14087 1.11029 -1.22131e-20)
(1.08179 1.07711 1.00615e-20)
(1.00761 1.0373 0)
(0.93123 0.993773 -4.61788e-19)
(0.844914 0.946986 0)
(0.749295 0.892934 1.11369e-18)
(0.652567 0.831818 -9.06016e-20)
(0.566592 0.763837 1.01594e-19)
(0.49305 0.687644 1.11989e-18)
(0.401898 0.58184 -3.65922e-19)
(0.286014 0.39851 -4.34701e-19)
(0.178795 0.267656 0)
(0.0714273 0.448047 0)
(0.0237894 1.36908 0)
(0.070952 2.47643 -3.86954e-19)
(0.096561 2.91706 -2.39362e-19)
(0.414253 0.403716 0)
(0.908057 0.859184 0)
(1.11371 1.07836 2.2221e-19)
(1.15695 1.13008 -2.55263e-19)
(1.12907 1.13405 1.20576e-19)
(1.06985 1.10071 -3.79543e-22)
(0.995656 1.06064 2.49178e-20)
(0.919182 1.0175 -1.94001e-20)
(0.832104 0.971289 7.76946e-20)
(0.73441 0.918148 -1.27826e-18)
(0.633549 0.859683 1.63957e-19)
(0.542305 0.797444 8.81867e-19)
(0.450902 0.716857 -1.1151e-18)
(0.362682 0.587791 -1.23362e-18)
(0.261797 0.454129 4.13857e-19)
(0.177196 0.606581 0)
(0.110817 1.597 5.59382e-19)
(0.116493 2.7034 6.0039e-19)
(0.123845 3.09128 -6.7052e-19)
(0.11676 3.22378 7.121e-19)
(0.413186 0.413942 0)
(0.903366 0.879894 3.83467e-19)
(1.10458 1.10223 -5.56512e-20)
(1.14578 1.15381 3.50841e-19)
(1.11735 1.15708 -1.26564e-19)
(1.05807 1.12348 0)
(0.983967 1.08378 0)
(0.907167 1.04084 0)
(0.81941 0.995372 4.34039e-19)
(0.720686 0.943766 5.86823e-20)
(0.617511 0.886979 0)
(0.520185 0.823522 -8.76256e-19)
(0.431532 0.749117 0)
(0.305459 0.631736 8.82481e-19)
(0.197513 0.678713 -5.99589e-19)
(0.141752 1.4685 -4.79243e-19)
(0.146783 2.68973 -1.09588e-18)
(0.170626 3.12591 -5.74989e-19)
(0.16125 3.26474 -7.6972e-19)
(0.148597 3.30492 5.52977e-19)
(0.411493 0.42314 -1.33191e-19)
(0.896243 0.895224 1.46228e-20)
(1.09431 1.12015 -6.1588e-20)
(1.13511 1.17398 -2.7231e-19)
(1.10646 1.17844 0)
(1.04705 1.14506 0)
(0.972931 1.10543 0)
(0.896132 1.06327 3.28144e-20)
(0.807851 1.01896 -5.4909e-19)
(0.707375 0.969101 0)
(0.600468 0.915988 0)
(0.500334 0.861089 0)
(0.386955 0.780399 0)
(0.308474 0.724721 6.50339e-19)
(0.263198 1.13196 1.59153e-18)
(0.23539 2.40558 4.65396e-19)
(0.253633 3.08101 9.28591e-19)
(0.248164 3.27734 -7.1098e-19)
(0.200247 3.34262 2.59135e-19)
(0.168839 3.35596 0)
(0.410287 0.432212 1.36722e-19)
(0.891943 0.9144 -8.47332e-19)
(1.08578 1.14244 -2.28916e-19)
(1.12462 1.19601 -5.09206e-20)
(1.09542 1.19982 2.93199e-20)
(1.03598 1.16633 -1.20124e-19)
(0.962004 1.12735 -1.70719e-22)
(0.884993 1.08579 -3.57564e-19)
(0.796242 1.04269 0)
(0.695173 0.995095 -7.56399e-20)
(0.587024 0.944841 6.88116e-20)
(0.481197 0.888021 0)
(0.383876 0.821572 0)
(0.320721 0.919232 -8.15129e-19)
(0.263778 1.85139 1.03363e-19)
(0.260554 2.94523 -3.50558e-19)
(0.28619 3.28005 7.33035e-19)
(0.257287 3.37822 5.2256e-19)
(0.193275 3.40291 -7.05253e-19)
(0.169013 3.41328 3.47238e-19)
(0.40815 0.441538 2.67428e-19)
(0.88419 0.928954 8.23445e-19)
(1.07501 1.15956 2.75602e-19)
(1.11373 1.21567 0)
(1.08441 1.22097 0)
(1.02493 1.18786 9.30158e-20)
(0.951072 1.14904 5.02007e-20)
(0.874283 1.10835 3.18216e-19)
(0.785366 1.06667 2.11926e-20)
(0.683115 1.02133 9.62788e-19)
(0.572373 0.975137 -1.15156e-18)
(0.460554 0.923486 0)
(0.380399 0.900219 0)
(0.332378 1.29956 -5.57012e-19)
(0.326624 2.49795 -6.676e-19)
(0.372201 3.19279 0)
(0.397569 3.35993 -7.40816e-19)
(0.3266 3.42299 5.13995e-20)
(0.25872 3.4689 3.38465e-19)
(0.23676 3.49445 -1.09519e-19)
(0.406313 0.451188 -5.0794e-19)
(0.879318 0.950186 -3.94783e-19)
(1.06544 1.18428 0)
(1.10202 1.23954 0)
(1.07223 1.24377 0)
(1.01289 1.21028 0)
(0.93944 1.17201 -6.11504e-20)
(0.862733 1.13195 2.76852e-19)
(0.773735 1.09153 0)
(0.67172 1.04873 -8.76158e-19)
(0.561547 1.00584 2.06782e-18)
(0.451028 0.961741 8.4951e-20)
(0.396533 1.02257 1.1492e-19)
(0.384187 1.73861 9.07564e-19)
(0.394331 2.9014 -4.88088e-19)
(0.435068 3.31136 0)
(0.417969 3.43238 2.08608e-19)
(0.33208 3.52177 9.09902e-20)
(0.258912 3.58634 1.48591e-19)
(0.183371 3.56578 -1.64673e-20)
(0.403278 0.461383 2.41236e-19)
(0.869548 0.965616 -4.00902e-19)
(1.05258 1.20231 0)
(1.08944 1.26051 -7.44779e-20)
(1.05968 1.2665 2.5748e-19)
(1.0005 1.23337 0)
(0.927433 1.19509 0)
(0.851311 1.15568 -4.79996e-19)
(0.762687 1.1166 -5.57679e-20)
(0.660401 1.07612 8.60564e-19)
(0.546421 1.03666 -9.82464e-19)
(0.451963 1.01279 5.79878e-19)
(0.411672 1.21113 0)
(0.419142 2.18507 -4.81551e-19)
(0.461117 3.14107 3.15478e-19)
(0.526701 3.41261 1.9832e-19)
(0.517479 3.50795 0)