/*--------------------------------*- C++ -*----------------------------------*\
| =========                 |                                                 |
| \\      /  F ield         | OpenFOAM: The Open Source CFD Toolbox           |
|  \\    /   O peration     | Version:  v2012                                 |
|   \\  /    A nd           | Website:  www.openfoam.com                      |
|    \\/     M anipulation  |                                                 |
\*---------------------------------------------------------------------------*/
FoamFile
{
    version     2.0;
    format      ascii;
    class       volScalarField;
    location    "22";
    object      p;
}
// * * * * * * * * * * * * * * * * * * * * * * * * * * * * * * * * * * * * * //

dimensions      [0 2 -2 0 0 0 0];


internalField   nonuniform List<scalar> 
2200
(
0.396378
0.374883
0.358984
0.343323
0.32873
0.316234
0.305886
0.297779
0.292039
0.289048
0.289352
0.292902
0.299062
0.307461
0.318019
0.330668
0.345362
0.361095
0.377038
0.398551
0.328769
0.325511
0.322603
0.318513
0.313088
0.306645
0.300054
0.294095
0.289528
0.287057
0.287368
0.29044
0.295432
0.301713
0.308531
0.315131
0.32067
0.324828
0.327773
0.331053
0.288844
0.289078
0.291164
0.292537
0.292954
0.292124
0.290185
0.28755
0.285
0.283369
0.283739
0.285995
0.289016
0.292
0.294187
0.295183
0.294888
0.293642
0.29166
0.291443
0.26641
0.267878
0.270507
0.272984
0.275435
0.277484
0.278631
0.278846
0.278464
0.278031
0.278447
0.279582
0.280511
0.280702
0.279857
0.27803
0.275742
0.273381
0.270807
0.269361
0.252046
0.254019
0.256875
0.259763
0.262684
0.265549
0.268001
0.269832
0.27095
0.271537
0.272022
0.272273
0.271799
0.270439
0.268342
0.265734
0.262985
0.260198
0.257408
0.255451
0.244738
0.246297
0.248549
0.251188
0.253944
0.256651
0.259267
0.261731
0.26371
0.265036
0.265617
0.265305
0.264101
0.262209
0.260005
0.257601
0.255061
0.252562
0.250388
0.248837
0.241732
0.242722
0.244033
0.245962
0.248161
0.250351
0.252495
0.254721
0.256867
0.258596
0.259276
0.258771
0.25757
0.256061
0.25441
0.252604
0.250677
0.248937
0.24772
0.24673
0.239563
0.24023
0.240946
0.242374
0.244114
0.245866
0.247557
0.249285
0.251059
0.252672
0.253509
0.253393
0.252776
0.251906
0.250855
0.24955
0.248141
0.246933
0.246325
0.245657
0.236623
0.237012
0.237571
0.238959
0.240626
0.242343
0.244024
0.245613
0.247149
0.248566
0.249638
0.250088
0.249979
0.249454
0.248537
0.247352
0.246073
0.244945
0.244499
0.244107
0.233334
0.23349
0.234016
0.235396
0.237052
0.238857
0.240743
0.242587
0.244312
0.245866
0.247183
0.247909
0.24791
0.24737
0.24642
0.245338
0.24416
0.243105
0.242711
0.242555
0.230375
0.230412
0.230851
0.231908
0.23324
0.234802
0.236603
0.238595
0.240669
0.242682
0.244308
0.245168
0.245227
0.244855
0.244273
0.243534
0.242746
0.24206
0.241796
0.241769
0.22735
0.227296
0.227644
0.228336
0.229319
0.230545
0.232
0.233782
0.235925
0.238287
0.240356
0.241692
0.242372
0.242565
0.242505
0.242262
0.241994
0.241746
0.24162
0.24162
0.223956
0.223879
0.224171
0.224707
0.225586
0.226703
0.22805
0.229765
0.231887
0.234442
0.236996
0.238993
0.24036
0.241148
0.241508
0.24168
0.24173
0.241698
0.241657
0.241656
0.220203
0.220175
0.220442
0.220983
0.22193
0.223169
0.224741
0.226744
0.229187
0.232157
0.235256
0.237739
0.239504
0.240643
0.241372
0.241819
0.242001
0.242071
0.242086
0.242089
0.215901
0.215895
0.216133
0.216709
0.217689
0.219039
0.22087
0.223278
0.226304
0.230019
0.233909
0.237037
0.239209
0.240756
0.241846
0.242504
0.242861
0.243059
0.243126
0.243119
0.21063
0.2106
0.210873
0.211501
0.212507
0.213925
0.215936
0.218689
0.22233
0.226944
0.231894
0.235983
0.238915
0.241004
0.242485
0.243467
0.244107
0.2445
0.244646
0.244627
0.204372
0.204333
0.204626
0.205283
0.206392
0.20803
0.210373
0.213601
0.21796
0.223586
0.229776
0.235004
0.238866
0.241633
0.243628
0.24499
0.245892
0.246417
0.246621
0.246589
0.196784
0.196747
0.197116
0.197964
0.199374
0.20144
0.204364
0.208395
0.213795
0.220738
0.228379
0.234893
0.239714
0.243184
0.245631
0.247298
0.248405
0.249045
0.249307
0.24927
0.187874
0.18782
0.188272
0.189346
0.191139
0.193773
0.197492
0.202591
0.209395
0.218075
0.227504
0.235501
0.241381
0.245609
0.248593
0.250643
0.251983
0.252743
0.253049
0.252999
0.176973
0.176932
0.177546
0.178942
0.181226
0.184558
0.189263
0.195735
0.204322
0.215178
0.226835
0.236631
0.243825
0.248998
0.252628
0.255126
0.256767
0.257702
0.258084
0.258021
0.163788
0.163699
0.164465
0.166236
0.169164
0.173459
0.17952
0.187782
0.198624
0.212148
0.226472
0.238407
0.247154
0.253447
0.257893
0.260969
0.262999
0.264155
0.264603
0.264511
0.147285
0.147264
0.148363
0.150681
0.15452
0.160178
0.168067
0.178704
0.192433
0.209206
0.226672
0.241104
0.25167
0.259272
0.264649
0.268375
0.27082
0.272204
0.272751
0.272644
0.126421
0.12635
0.127852
0.131106
0.136394
0.14407
0.154589
0.168463
0.185844
0.206529
0.227658
0.244927
0.25753
0.26662
0.27308
0.277594
0.280612
0.282327
0.282964
0.282796
0.098953
0.0991919
0.101585
0.106305
0.113852
0.124649
0.13894
0.157022
0.178908
0.204215
0.229488
0.249908
0.264776
0.275555
0.283324
0.288811
0.292459
0.29449
0.295244
0.295046
0.0623453
0.062841
0.0668379
0.0745399
0.0860068
0.101631
0.121015
0.144475
0.171804
0.202404
0.232275
0.256141
0.273515
0.286173
0.295374
0.301996
0.306532
0.309124
0.310041
0.309696
0.0131898
0.013764
0.0213726
0.0345817
0.0526018
0.0749353
0.101136
0.131298
0.164961
0.201468
0.236272
0.26373
0.283708
0.298407
0.309283
0.317267
0.322808
0.325866
0.326777
0.326339
-0.0532714
-0.0499907
-0.0336538
-0.0113275
0.0154813
0.0461103
0.0802636
0.117908
0.158591
0.201744
0.24214
0.273945
0.297387
0.314921
0.328181
0.338269
0.345695
0.349729
0.350759
0.350501
-0.130444
-0.119058
-0.0911852
-0.0589499
-0.0224718
0.0170009
0.059304
0.104668
0.152745
0.202992
0.24973
0.286713
0.314253
0.335326
0.351741
0.364563
0.37461
0.380643
0.383138
0.383522
-0.196781
-0.180223
-0.145338
-0.104844
-0.0593425
-0.0113621
0.0390362
0.092148
0.147536
0.204658
0.257377
0.298998
0.330064
0.354006
0.372821
0.38757
0.398852
0.406234
0.409064
0.409186
-0.245997
-0.231493
-0.19149
-0.145306
-0.0928682
-0.0377972
0.0199233
0.0802188
0.142398
0.205891
0.26402
0.30961
0.343602
0.36956
0.389856
0.405659
0.417517
0.42491
0.427801
0.428078
-0.286574
-0.272935
-0.229822
-0.179992
-0.122402
-0.0616642
0.00223033
0.0687301
0.136987
0.206425
0.269607
0.318801
0.354889
0.382012
0.402716
0.418656
0.430673
0.438339
0.441458
0.441782
-0.321473
-0.307568
-0.262291
-0.209993
-0.14838
-0.0830972
-0.0141196
0.0576857
0.131423
0.206315
0.27393
0.325706
0.363137
0.390915
0.412121
0.428411
0.440646
0.448499
0.451818
0.452122
-0.352005
-0.338035
-0.290878
-0.236368
-0.171473
-0.102528
-0.0293384
0.0470501
0.125651
0.205219
0.276576
0.330733
0.36965
0.398327
0.419772
0.436126
0.44851
0.456468
0.459977
0.460044
-0.379616
-0.365683
-0.316818
-0.260014
-0.192295
-0.120403
-0.0437039
0.0366092
0.119398
0.203163
0.278235
0.33513
0.375368
0.404756
0.426782
0.443379
0.45562
0.463725
0.46678
0.466761
-0.404858
-0.391066
-0.340831
-0.281757
-0.211514
-0.137148
-0.0574977
0.0261836
0.112693
0.200525
0.279458
0.338838
0.38062
0.411018
0.433419
0.450039
0.462207
0.470038
0.473261
0.473358
-0.428689
-0.414559
-0.363405
-0.302329
-0.229752
-0.153153
-0.0709233
0.0156979
0.105614
0.197251
0.279957
0.342326
0.386275
0.417397
0.44012
0.456821
0.468945
0.476711
0.479875
0.480049
-0.451104
-0.436763
-0.384989
-0.322198
-0.247549
-0.168797
-0.0841638
0.00511664
0.0981527
0.19344
0.280066
0.345726
0.391243
0.42354
0.446859
0.463845
0.476
0.483504
0.486771
0.486955
-0.472229
-0.457934
-0.405685
-0.341537
-0.265185
-0.184368
-0.0974199
-0.00566471
0.0902422
0.189071
0.279583
0.348318
0.396126
0.429844
0.453815
0.471003
0.483296
0.490815
0.493887
0.494026
-0.492591
-0.478176
-0.425609
-0.360367
-0.28266
-0.199977
-0.110867
-0.0167736
0.0818279
0.183934
0.278137
0.350186
0.400994
0.436423
0.461251
0.478726
0.490934
0.498132
0.501163
0.501238
-0.512698
-0.497695
-0.444854
-0.378659
-0.299886
-0.21562
-0.124596
-0.0283388
0.0727198
0.177711
0.275473
0.351405
0.40532
0.44303
0.46909
0.486928
0.498972
0.506059
0.508701
0.508634
-0.532518
-0.516695
-0.463524
-0.396406
-0.316761
-0.231217
-0.13859
-0.04046
0.0627436
0.17032
0.271576
0.351596
0.409168
0.449953
0.477737
0.496071
0.507608
0.513789
0.516163
0.515993
-0.551869
-0.535308
-0.481696
-0.413635
-0.333217
-0.246663
-0.152761
-0.0530786
0.0520163
0.162168
0.267049
0.351141
0.412758
0.456858
0.487187
0.506334
0.517135
0.52219
0.523672
0.523297
-0.570569
-0.553492
-0.49939
-0.430394
-0.349239
-0.261856
-0.166943
-0.0659768
0.0408523
0.153328
0.260894
0.348574
0.414697
0.463375
0.497328
0.518629
0.528911
0.530544
0.529884
0.530113
-0.588604
-0.571164
-0.516568
-0.4467
-0.364832
-0.276717
-0.180955
-0.0789073
0.0293467
0.143483
0.253328
0.345113
0.415758
0.469163
0.507911
0.532959
0.544166
0.542329
0.537028
0.53456
-0.605951
-0.588226
-0.533173
-0.462529
-0.379988
-0.291193
-0.194691
-0.0917816
0.0175326
0.133149
0.245353
0.340204
0.414767
0.473791
0.51859
0.549611
0.566155
0.559162
0.552893
0.557773
-0.622628
-0.604615
-0.549131
-0.477829
-0.394688
-0.305277
-0.208153
-0.104587
0.00558761
0.122396
0.235984
0.332568
0.411338
0.475855
0.527549
0.566747
0.593382
0.579236
0.53465
0.487897
-0.638569
-0.620341
-0.564465
-0.492647
-0.409049
-0.319156
-0.221565
-0.117533
-0.00683182
0.110659
0.225232
0.323716
0.405183
0.474368
0.533372
0.583176
0.625135
0.641383
0.662919
0.713273
-0.653736
-0.635461
-0.579259
-0.507103
-0.423238
-0.333077
-0.235253
-0.131055
-0.0201852
0.0976591
0.212799
0.311598
0.39455
0.467203
0.528929
0.579598
0.61384
0.622725
0.598814
0.605784
-0.668094
-0.649944
-0.593471
-0.52113
-0.437158
-0.346941
-0.249116
-0.144992
-0.0342643
0.0833198
0.198204
0.296862
0.378708
0.450065
0.50988
0.554697
0.560944
0.523871
0.469765
0.461751
-0.681673
-0.663789
-0.607113
-0.534733
-0.450789
-0.360709
-0.263078
-0.159267
-0.0490637
0.0678164
0.181872
0.278946
0.3573
0.422506
0.474969
0.493247
0.464644
0.397046
0.326729
0.316298
-0.694516
-0.676988
-0.620203
-0.547931
-0.464132
-0.374352
-0.277102
-0.173866
-0.0644836
0.0511554
0.163459
0.257753
0.330025
0.382245
0.410233
0.40154
0.354981
0.255306
0.168747
0.152514
-0.707073
-0.689959
-0.633139
-0.561093
-0.477529
-0.388155
-0.291413
-0.188928
-0.0807173
0.0330652
0.142742
0.233047
0.297846
0.334866
0.328502
0.293216
0.188983
0.0668065
-0.040807
-0.0635412
-0.720214
-0.703455
-0.646595
-0.574827
-0.491541
-0.40258
-0.306414
-0.204845
-0.0980473
0.0135689
0.11993
0.205037
0.262893
0.276976
0.2366
0.149206
-0.010208
-0.164475
-0.292889
-0.317807
-0.734428
-0.717917
-0.660885
-0.589363
-0.506353
-0.417769
-0.322211
-0.221628
-0.116399
-0.00752098
0.0943789
0.173945
0.221786
0.208161
0.143289
-0.0106618
-0.220588
-0.441064
-0.625384
-0.671683
-0.749767
-0.733367
-0.676037
-0.604708
-0.521942
-0.433697
-0.338759
-0.239258
-0.135806
-0.0298984
0.0671764
0.140385
0.172669
0.126199
0.0267057
-0.175962
-0.425232
-0.732468
-1.06902
-1.21071
-0.766284
-0.749954
-0.692155
-0.620936
-0.538347
-0.450424
-0.356142
-0.257792
-0.156167
-0.053543
0.0380625
0.104729
0.120612
0.0387773
-0.113102
-0.343062
-0.602378
-0.975473
-1.59518
-2.18399
-0.783967
-0.767629
-0.709261
-0.63808
-0.55557
-0.467925
-0.37426
-0.277047
-0.177324
-0.0780597
0.00755881
0.0667619
0.0654698
-0.0420653
-0.251424
-0.518518
-0.752353
-1.02426
-1.63995
-3.2709
-0.802887
-0.786516
-0.727448
-0.65625
-0.573728
-0.486338
-0.393333
-0.29738
-0.199677
-0.103879
-0.0244265
0.0261272
0.00541416
-0.107984
-0.358108
-0.638602
-0.819103
-0.88658
-0.914903
-1.33222
-0.822948
-0.806536
-0.746844
-0.675702
-0.593163
-0.506106
-0.413874
-0.319308
-0.223855
-0.131927
-0.0582348
-0.0175219
-0.057654
-0.160062
-0.416727
-0.665475
-0.808703
-0.836736
-0.792422
-0.840652
-0.844162
-0.827665
-0.767484
-0.696482
-0.613883
-0.527246
-0.435936
-0.343003
-0.250236
-0.162807
-0.0942197
-0.06296
-0.117084
-0.213613
-0.456588
-0.66109
-0.771548
-0.791827
-0.831479
-0.846758
-0.866326
-0.849493
-0.789285
-0.718549
-0.635839
-0.549775
-0.459527
-0.368384
-0.278564
-0.195756
-0.131774
-0.109768
-0.170735
-0.275516
-0.494888
-0.660451
-0.752952
-0.724805
-0.751507
-0.752375
-0.88919
-0.872014
-0.812178
-0.74179
-0.658822
-0.573482
-0.484385
-0.395108
-0.308531
-0.230597
-0.170729
-0.158433
-0.219486
-0.346736
-0.535695
-0.662227
-0.732689
-0.75604
-0.746075
-0.753908
-0.912167
-0.894818
-0.836013
-0.765885
-0.6826
-0.598177
-0.510316
-0.423024
-0.339999
-0.266884
-0.211102
-0.21271
-0.265787
-0.416907
-0.58324
-0.679281
-0.692165
-0.756786
-0.724865
-0.7358
-0.935026
-0.917774
-0.860341
-0.790256
-0.706806
-0.623482
-0.536814
-0.451417
-0.371989
-0.303646
-0.250833
-0.264707
-0.320897
-0.480605
-0.618694
-0.706405
-0.678978
-0.733486
-0.717563
-0.720684
-0.957179
-0.94038
-0.884143
-0.814316
-0.731137
-0.648885
-0.563311
-0.479704
-0.403786
-0.340398
-0.2894
-0.312438
-0.387085
-0.540681
-0.640542
-0.712808
-0.732533
-0.717484
-0.729086
-0.726197
-0.978077
-0.961987
-0.90673
-0.837198
-0.755062
-0.673751
-0.589064
-0.507202
-0.43439
-0.376098
-0.32717
-0.354024
-0.46224
-0.625791
-0.665559
-0.647047
-0.711275
-0.697582
-0.723488
-0.726503
-0.996708
-0.981637
-0.927502
-0.858437
-0.777991
-0.697094
-0.613283
-0.532827
-0.462401
-0.40964
-0.363382
-0.384025
-0.539085
-0.73668
-0.754661
-0.647345
-0.679434
-0.693813
-0.721126
-0.728051
-1.01213
-0.998325
-0.945695
-0.877254
-0.798665
-0.717935
-0.635006
-0.555575
-0.485959
-0.438715
-0.397478
-0.405485
-0.608831
-0.877798
-1.02278
-1.02461
-1.02998
-1.01368
-0.993274
-0.976487
-1.02331
-1.01113
-0.960705
-0.893278
-0.815889
-0.735244
-0.653053
-0.574569
-0.503777
-0.459118
-0.427897
-0.413944
-0.654844
-1.01498
-1.47077
-1.7634
-1.8491
-1.80569
-1.70581
-1.6252
-1.02918
-1.01875
-0.971195
-0.904894
-0.82813
-0.747897
-0.666344
-0.588267
-0.515858
-0.465166
-0.444469
-0.418916
-0.651803
-1.03334
-1.57071
-1.95709
-2.03255
-1.92506
-1.82384
-1.75496
-1.02879
-1.02012
-0.975971
-0.911035
-0.834836
-0.755021
-0.673461
-0.594636
-0.519625
-0.459777
-0.436632
-0.403963
-0.55463
-0.757691
-1.00228
-1.14669
-1.11663
-1.02991
-0.908305
-0.804974
-1.02086
-1.01356
-0.973442
-0.910119
-0.834906
-0.75557
-0.673354
-0.592312
-0.513189
-0.441637
-0.401147
-0.322775
-0.315167
-0.168928
-0.00556428
0.132376
0.286365
0.406127
0.474822
0.512114
-1.00326
-0.996476
-0.962047
-0.901529
-0.82768
-0.748889
-0.665938
-0.582046
-0.497926
-0.406698
-0.338674
-0.208114
-0.0201501
0.339268
0.736779
1.05129
1.27898
1.4206
1.48758
1.51086
-0.973133
-0.966766
-0.940442
-0.884908
-0.813393
-0.735446
-0.652187
-0.565057
-0.475946
-0.366923
-0.262376
-0.129295
0.170897
0.572287
1.00349
1.36511
1.63145
1.79006
1.85836
1.87551
-0.93005
-0.925685
-0.909048
-0.859801
-0.791779
-0.715661
-0.633872
-0.54505
-0.452222
-0.34018
-0.217216
-0.118099
0.145186
0.503626
0.886529
1.21224
1.46902
1.62701
1.69929
1.72052
-0.883822
-0.883001
-0.87298
-0.82892
-0.764768
-0.69156
-0.613917
-0.527081
-0.435716
-0.335957
-0.21487
-0.145673
0.0248057
0.309887
0.615086
0.867529
1.07054
1.2045
1.27047
1.29466
-0.835721
-0.838458
-0.828454
-0.790783
-0.732744
-0.665372
-0.593319
-0.514868
-0.430211
-0.342232
-0.230161
-0.162147
-0.0554623
0.149769
0.384162
0.568368
0.710767
0.812116
0.861345
0.877745
-0.764995
-0.769187
-0.761714
-0.734887
-0.688314
-0.632523
-0.570916
-0.505146
-0.427431
-0.349395
-0.244818
-0.167764
-0.0954739
0.0446141
0.226849
0.357478
0.455956
0.526556
0.558447
0.564597
-0.679334
-0.680702
-0.676936
-0.661404
-0.630121
-0.591048
-0.545014
-0.493676
-0.428671
-0.354356
-0.257523
-0.17238
-0.126123
-0.0259672
0.10552
0.187049
0.253395
0.300267
0.317997
0.324163
-0.598222
-0.598812
-0.596274
-0.587877
-0.570504
-0.545989
-0.5154
-0.4794
-0.43095
-0.362593
-0.275106
-0.192208
-0.152061
-0.0827834
0.00286412
0.0555998
0.101446
0.137498
0.151374
0.156824
-0.538585
-0.538475
-0.53657
-0.532266
-0.523706
-0.509255
-0.490172
-0.46439
-0.427054
-0.3832
-0.305513
-0.228022
-0.180803
-0.148373
-0.0908024
-0.0493486
-0.0129679
0.0139658
0.0304725
0.0348316
-0.507269
-0.506893
-0.506104
-0.504209
-0.500107
-0.492571
-0.483024
-0.468484
-0.447876
-0.420379
-0.352012
-0.282351
-0.227521
-0.211925
-0.169008
-0.134487
-0.10447
-0.0858576
-0.0738427
-0.0724907
-0.501592
-0.501358
-0.501227
-0.501181
-0.49954
-0.497845
-0.497548
-0.496821
-0.500312
-0.492825
-0.450024
-0.373667
-0.304226
-0.277277
-0.242276
-0.211202
-0.184013
-0.169479
-0.163731
-0.164501
-0.511277
-0.511354
-0.511971
-0.51347
-0.515817
-0.519998
-0.529996
-0.54756
-0.581697
-0.61126
-0.620303
-0.529795
-0.428681
-0.36944
-0.321375
-0.282434
-0.248743
-0.226214
-0.221682
-0.225321
-0.524856
-0.52547
-0.527241
-0.530551
-0.536862
-0.548657
-0.571515
-0.613075
-0.685285
-0.775327
-0.85379
-0.757979
-0.619694
-0.524236
-0.433097
-0.360541
-0.301159
-0.274801
-0.268396
-0.274875
-0.529453
-0.530649
-0.533577
-0.539592
-0.549696
-0.56917
-0.605948
-0.673873
-0.792531
-0.958949
-1.11237
-1.01449
-0.853539
-0.708011
-0.561359
-0.450234
-0.38874
-0.361924
-0.356073
-0.360093
-0.513672
-0.515874
-0.518698
-0.52611
-0.540463
-0.565238
-0.610502
-0.69661
-0.845582
-1.05311
-1.3323
-1.17133
-0.982823
-0.803012
-0.649058
-0.550619
-0.506328
-0.481757
-0.476984
-0.476445
-0.472973
-0.475048
-0.478066
-0.484046
-0.497857
-0.52368
-0.572035
-0.660751
-0.815381
-1.05026
-1.25592
-1.1426
-0.94171
-0.769979
-0.665163
-0.607873
-0.567299
-0.567169
-0.5622
-0.559515
-0.407211
-0.40888
-0.411823
-0.416563
-0.427314
-0.449478
-0.490893
-0.567168
-0.70014
-0.890986
-1.02538
-0.921365
-0.758534
-0.673167
-0.624397
-0.58794
-0.576481
-0.577269
-0.575244
-0.57275
-0.324142
-0.325248
-0.327179
-0.330773
-0.337819
-0.352959
-0.382027
-0.43652
-0.530288
-0.657643
-0.739478
-0.644727
-0.557403
-0.534511
-0.53212
-0.525067
-0.532424
-0.532969
-0.532114
-0.528116
-0.236058
-0.236615
-0.237472
-0.238951
-0.242443
-0.250538
-0.266525
-0.297486
-0.350629
-0.422614
-0.465879
-0.386629
-0.373672
-0.392137
-0.404488
-0.434165
-0.442275
-0.44453
-0.443529
-0.442293
-0.154681
-0.154819
-0.154953
-0.154948
-0.155638
-0.158181
-0.163525
-0.174781
-0.193351
-0.215703
-0.21805
-0.212402
-0.240388
-0.264719
-0.298671
-0.327498
-0.333728
-0.337404
-0.339222
-0.339425
-0.0878703
-0.0877213
-0.0875373
-0.0868635
-0.0861173
-0.0855565
-0.0847038
-0.0840503
-0.0818551
-0.0673224
-0.0691127
-0.105329
-0.143648
-0.179452
-0.213264
-0.232565
-0.239123
-0.244061
-0.246318
-0.246713
-0.0388603
-0.0385746
-0.0383547
-0.037643
-0.0365682
-0.0350066
-0.0320589
-0.0273689
-0.019733
-0.00384925
0.00211973
-0.042175
-0.0837111
-0.116301
-0.143995
-0.158968
-0.166288
-0.170285
-0.171608
-0.172096
-0.00662753
-0.00632911
-0.00618055
-0.00574536
-0.00487516
-0.00347329
-0.000628496
0.00393343
0.0108124
0.0207088
0.0238891
-0.0139216
-0.0485921
-0.0743237
-0.0954333
-0.104737
-0.11022
-0.113316
-0.114733
-0.115311
0.0120866
0.0123311
0.0123996
0.0124707
0.0129595
0.0138342
0.0158216
0.0190154
0.0236171
0.0284967
0.0277379
-0.000493635
-0.027073
-0.0461131
-0.0613643
-0.0688863
-0.0725058
-0.0742867
-0.075254
-0.0756804
0.0210807
0.0212569
0.0212572
0.021042
0.0211138
0.0214052
0.0224048
0.0241409
0.0265779
0.0281502
0.0250825
0.00524782
-0.013903
-0.0265251
-0.0402266
-0.044667
-0.0471257
-0.0482263
-0.0488708
-0.0491498
0.0234492
0.0235663
0.0235101
0.0231407
0.0228949
0.0227329
0.0229398
0.0235319
0.0243999
0.0241362
0.0202194
0.0065829
-0.00704461
-0.0165285
-0.0241963
-0.0274355
-0.0295001
-0.0304344
-0.031007
-0.0312314
0.0215235
0.0215991
0.0215182
0.0211152
0.0207166
0.0203125
0.0200465
0.0199273
0.0198331
0.0187357
0.0150248
0.00590453
-0.0032842
-0.00971726
-0.014496
-0.0171243
-0.018603
-0.0192026
-0.0195027
-0.0196038
0.0169468
0.0169953
0.0169197
0.0165796
0.0161848
0.0157543
0.0153437
0.0149615
0.0144799
0.0132316
0.0102719
0.00442269
-0.00136495
-0.00534517
-0.00827565
-0.0100044
-0.0109067
-0.0111837
-0.0113194
-0.0114006
0.0107999
0.0108339
0.010791
0.0105568
0.010264
0.00995085
0.00960393
0.00927737
0.00881667
0.00789437
0.00601891
0.00274192
-0.000485774
-0.00265581
-0.00417347
-0.00488378
-0.00524904
-0.00544503
-0.00559312
-0.0056697
0.00379103
0.003809
0.00381283
0.00370259
0.00357696
0.00344985
0.00329617
0.0032048
0.00299261
0.00268347
0.00202383
0.000935518
-0.000182592
-0.0010168
-0.00170501
-0.00196359
-0.00199011
-0.001922
-0.00183211
-0.00178909
-1.56002
-0.66664
-0.392265
-0.100643
0.0969185
0.26826
0.412899
0.559753
0.716037
0.792872
-0.533889
-0.102127
-0.071893
0.125781
0.264189
0.387901
0.495734
0.590381
0.622621
0.577765
-0.12352
0.104553
0.150901
0.292379
0.388563
0.476507
0.549178
0.603228
0.608333
0.620103
0.124657
0.280098
0.317091
0.428281
0.488837
0.552255
0.600762
0.634986
0.645382
0.66827
0.317765
0.424627
0.454433
0.53095
0.575673
0.620817
0.655128
0.680423
0.691143
0.722011
0.466225
0.540471
0.570986
0.618616
0.655977
0.688111
0.713811
0.735006
0.74991
0.777682
0.590497
0.643816
0.670281
0.700418
0.729632
0.7545
0.775313
0.794938
0.810238
0.836431
0.697214
0.736141
0.757919
0.779578
0.8015
0.821657
0.839483
0.857893
0.872895
0.896463
0.793499
0.822832
0.840321
0.856234
0.873058
0.88957
0.905359
0.922528
0.936128
0.958426
0.882956
0.904005
0.919319
0.93286
0.946779
0.960822
0.97442
0.989089
1.00064
1.02031
0.969584
0.985525
0.999569
1.01162
1.02374
1.03546
1.04663
1.05834
1.06601
1.08283
1.05528
1.06827
1.0821
1.09382
1.10442
1.11419
1.12297
1.13122
1.1348
1.14608
1.14476
1.15575
1.16924
1.17845
1.18589
1.19307
1.20027
1.20688
1.20787
1.2153
1.24325
1.24798
1.25602
1.26051
1.26377
1.26824
1.27424
1.28202
1.28584
1.29573
1.35658
1.34286
1.33541
1.32976
1.32708
1.32848
1.33501
1.34744
1.36217
1.39181
1.47739
1.42173
1.39085
1.37377
1.36564
1.36566
1.37431
1.39376
1.42582
1.49498
)
;

boundaryField
{
    wall-4
    {
        type            zeroGradient;
    }
    pressure-outlet-7
    {
        type            fixedValue;
        value           uniform 0;
    }
    velocity-inlet-6
    {
        type            zeroGradient;
    }
    velocity-inlet-5
    {
        type            zeroGradient;
    }
    frontAndBackPlanes
    {
        type            empty;
    }
}


// ************************************************************************* //
