/*--------------------------------*- C++ -*----------------------------------*\
| =========                 |                                                 |
| \\      /  F ield         | OpenFOAM: The Open Source CFD Toolbox           |
|  \\    /   O peration     | Version:  v2012                                 |
|   \\  /    A nd           | Website:  www.openfoam.com                      |
|    \\/     M anipulation  |                                                 |
\*---------------------------------------------------------------------------*/
FoamFile
{
    version     2.0;
    format      ascii;
    class       surfaceScalarField;
    location    "22";
    object      phi;
}
// * * * * * * * * * * * * * * * * * * * * * * * * * * * * * * * * * * * * * //

dimensions      [0 3 -1 0 0 0 0];
oriented        oriented;


internalField   nonuniform List<scalar> 
4262
(
0.107149
0.470839
0.0955851
0.70515
0.0694334
0.858455
0.0474373
1.02076
0.0309816
1.21497
0.019697
1.4495
0.0123302
1.73323
0.0072683
2.0761
0.0034592
2.48905
-0.000250068
2.986
-0.0039422
2.98598
-0.00769516
2.489
-0.0127156
2.07606
-0.0200077
1.73316
-0.0312171
1.44943
-0.0476363
1.21494
-0.069571
1.0207
-0.0956554
0.858387
-0.107206
0.705136
0.470783
0.112805
0.358034
0.13522
0.682735
0.12039
0.873284
0.0980092
1.04314
0.0750691
1.23791
0.0535099
1.47106
0.0349594
1.75178
0.0203835
2.09067
0.00890131
2.50053
-0.000724003
2.99563
-0.010379
2.99564
-0.0216905
2.50031
-0.036113
2.09048
-0.0545729
1.75162
-0.0760451
1.4709
-0.0988546
1.23775
-0.121125
1.04297
-0.13574
0.873002
-0.113061
0.682457
0.357722
0.0918604
0.266174
0.124598
0.649997
0.120583
0.877299
0.104145
1.05958
0.0856673
1.25639
0.066749
1.48998
0.0479733
1.77056
0.030191
2.10846
0.0140399
2.51669
-0.00144655
3.01111
-0.0168597
3.01105
-0.0328649
2.51631
-0.0504024
2.10802
-0.068786
1.77
-0.0872204
1.48934
-0.105256
1.25578
-0.121323
1.05904
-0.12522
0.876899
-0.0921674
0.649404
0.265554
0.0636747
0.202499
0.104276
0.609396
0.105778
0.875796
0.0939685
1.07139
0.0793804
1.27098
0.0648337
1.50453
0.0492202
1.78617
0.032883
2.12479
0.0160825
2.53349
-0.00199918
3.02919
-0.0199124
3.02897
-0.0363869
2.53279
-0.0521647
2.12379
-0.0672395
1.78507
-0.0814595
1.50356
-0.0958128
1.27013
-0.107352
1.07058
-0.105326
0.874873
-0.0641105
0.608188
0.201444
0.0371193
0.16538
0.0800698
0.566445
0.0904188
0.865447
0.0832952
1.07851
0.0705682
1.28371
0.0583379
1.51676
0.045713
1.79879
0.0314762
2.13903
0.0154997
2.54946
-0.00278403
3.04748
-0.0207493
3.04693
-0.0360991
2.54814
-0.0497515
2.13745
-0.0619592
1.79728
-0.0736955
1.51529
-0.0859296
1.28237
-0.092499
1.07714
-0.0814645
0.863839
-0.0376285
0.564352
0.163815
0.0189756
0.146404
0.0555315
0.52989
0.0705846
0.850394
0.0690643
1.08003
0.0609926
1.29178
0.0504027
1.52735
0.0393332
1.80986
0.027575
2.15079
0.0134774
2.56356
-0.00365487
3.06461
-0.020468
3.06374
-0.033897
2.56157
-0.0448788
2.14843
-0.0550659
1.80747
-0.0648875
1.52511
-0.0722154
1.2897
-0.0729778
1.07791
-0.0570067
0.847867
-0.0194708
0.526817
0.144344
0.00985982
0.136544
0.0397479
0.500002
0.0547744
0.835368
0.0553889
1.07942
0.0503027
1.29686
0.0420856
1.53557
0.0327126
1.81924
0.021939
2.16156
0.00966306
2.57584
-0.00456719
3.07884
-0.0185178
3.07769
-0.0301801
2.57323
-0.0399561
2.1582
-0.0481674
1.81568
-0.0554721
1.53242
-0.0596042
1.29383
-0.0580084
1.07631
-0.0417211
0.83158
-0.0104782
0.495574
0.133866
0.00572848
0.130816
0.0305523
0.475178
0.0455422
0.820378
0.0467634
1.0782
0.0424412
1.30119
0.0354259
1.54258
0.0269921
1.82767
0.0170517
2.1715
0.00606195
2.58683
-0.00575686
3.09066
-0.0170936
3.08903
-0.0269859
2.58312
-0.0354235
2.16664
-0.0427639
1.82302
-0.0486682
1.53832
-0.0518534
1.29701
-0.0494357
1.07389
-0.0329062
0.815051
-0.00648089
0.469148
0.127385
0.00356286
0.127253
0.0228241
0.455917
0.0371394
0.806063
0.0390174
1.07632
0.0351755
1.30503
0.0290909
1.54867
0.0215944
1.83517
0.012924
2.18017
0.00340928
2.59634
-0.00703866
3.10111
-0.0169381
3.09893
-0.0252595
2.59144
-0.0328914
2.17427
-0.0386465
1.82878
-0.0430858
1.54276
-0.04551
1.29944
-0.0420117
1.0704
-0.0256146
0.798653
-0.00448068
0.448015
0.122905
0.00160962
0.125643
0.0137686
0.443758
0.0258609
0.79397
0.0285411
1.07364
0.0257405
1.30783
0.0209918
1.55341
0.0154045
1.84076
0.00855694
2.18702
0.000324378
2.60457
-0.00933916
3.11077
-0.018305
3.1079
-0.0246342
2.59777
-0.0292468
2.17889
-0.0328117
1.83234
-0.0357599
1.54571
-0.0365574
1.30024
-0.0316987
1.06554
-0.0171478
0.784103
-0.00276456
0.433631
0.12014
9.78481e-05
0.125546
0.00614266
0.437713
0.014899
0.785214
0.0175856
1.07095
0.0157669
1.30965
0.0121539
1.55703
0.0080172
1.84489
0.00306217
2.19198
-0.00323261
2.61087
-0.0112255
3.11876
-0.0182953
3.11497
-0.0225047
2.60198
-0.0247342
2.18112
-0.0268947
1.8345
-0.028143
1.54696
-0.0274314
1.29952
-0.0218542
1.05996
-0.01014
0.772388
-0.00152325
0.425015
0.118617
-0.000397493
0.125943
0.00182368
0.435492
0.00755309
0.779485
0.0100712
1.06843
0.00891558
1.3108
0.00603084
1.55991
0.00211785
1.8488
-0.00251183
2.19661
-0.00802831
2.61638
-0.0142259
3.12496
-0.0192322
3.11997
-0.0222591
2.60501
-0.0240308
2.18289
-0.0243161
1.83479
-0.0235121
1.54615
-0.0215993
1.29761
-0.0160351
1.0544
-0.00680305
0.763156
-0.0012322
0.419444
0.117385
-0.000789739
0.126733
-0.000693886
0.435396
0.002726
0.776065
0.00444723
1.06671
0.0038606
1.31139
0.00200363
1.56177
-0.00129744
1.85211
-0.00598117
2.20129
-0.0116937
2.6221
-0.0177522
3.13102
-0.0223589
3.12458
-0.0249348
2.60758
-0.0256098
2.18356
-0.0245239
1.8337
-0.0229503
1.54458
-0.0198788
1.29454
-0.0139746
1.04849
-0.00603295
0.755215
-0.00146964
0.41488
0.115915
-0.00138836
0.128121
-0.00254945
0.436557
-0.000927465
0.774443
0.000480504
1.0653
0.00017242
1.3117
-0.00158997
1.56353
-0.00501671
1.85553
-0.00987322
2.20615
-0.0159189
2.62814
-0.0223636
3.13747
-0.0270188
3.12923
-0.0287443
2.60931
-0.0281927
2.18301
-0.0262157
1.83172
-0.0232065
1.54157
-0.0185232
1.28986
-0.0121662
1.04213
-0.0052579
0.748306
-0.00140367
0.411026
0.114511
-0.00202592
0.130147
-0.00456711
0.439098
-0.00502234
0.774898
-0.00411317
1.0644
-0.00403369
1.31162
-0.00553645
1.56503
-0.00883581
1.85883
-0.0140002
2.21131
-0.0205964
2.63474
-0.0274711
3.14434
-0.0321888
3.13395
-0.0337334
2.61085
-0.0327604
2.18204
-0.0300984
1.82906
-0.025542
1.53702
-0.0194126
1.28373
-0.0120745
1.0348
-0.00527219
0.741504
-0.00147138
0.407225
0.11304
-0.00237139
0.132518
-0.00638908
0.443116
-0.00807342
0.776582
-0.00742499
1.06375
-0.00744793
1.31164
-0.00961017
1.5672
-0.0140195
1.86324
-0.0202351
2.21753
-0.0276051
2.64211
-0.034776
3.15151
-0.039194
3.13837
-0.0402978
2.61196
-0.0385516
2.18029
-0.0347119
1.82522
-0.0284936
1.5308
-0.0208639
1.2761
-0.0127033
1.02664
-0.00595788
0.734759
-0.00182611
0.403094
0.111214
-0.0029926
0.135511
-0.00824727
0.44837
-0.0113676
0.779703
-0.0119982
1.06438
-0.0123782
1.31202
-0.0148035
1.56962
-0.0199505
1.86839
-0.0272425
2.22482
-0.0356374
2.6505
-0.0432892
3.15916
-0.0473515
3.14243
-0.0476444
2.61225
-0.0449516
2.1776
-0.0401484
1.82042
-0.0330117
1.52366
-0.0244704
1.26756
-0.015461
1.01763
-0.00781496
0.727113
-0.00249634
0.397775
0.108718
-0.00350538
0.139016
-0.00974391
0.454609
-0.0143652
0.784324
-0.0164801
1.06649
-0.0184209
1.31396
-0.0224423
1.57364
-0.0290371
1.87498
-0.0375627
2.23334
-0.046814
2.65976
-0.0547045
3.16705
-0.0581289
3.14586
-0.057169
2.61129
-0.0530573
2.17349
-0.0463973
1.81376
-0.0374773
1.51474
-0.0273171
1.2574
-0.0174199
1.00773
-0.00925765
0.71895
-0.00306772
0.391585
0.10565
-0.00482156
0.143838
-0.0134834
0.463271
-0.0206249
0.791465
-0.024656
1.07052
-0.0280155
1.31732
-0.0333261
1.57895
-0.0411106
1.88277
-0.0505603
2.24279
-0.060191
2.66939
-0.0675947
3.17446
-0.0694769
3.14774
-0.0663149
2.60813
-0.0600362
2.16721
-0.0515432
1.80527
-0.0417434
1.50494
-0.0313245
1.24698
-0.0209493
0.997354
-0.0114684
0.709469
-0.0037664
0.383883
0.101883
-0.00581687
0.149655
-0.0162004
0.473654
-0.0255747
0.80084
-0.0325066
1.07746
-0.0391765
1.32399
-0.0472678
1.58705
-0.0570619
1.89256
-0.067896
2.25363
-0.0780263
2.67952
-0.0845442
3.18097
-0.0843308
3.14753
-0.0787423
2.60254
-0.0701894
2.15866
-0.0596309
1.79471
-0.0477866
1.4931
-0.0355298
1.23472
-0.0238277
0.985652
-0.0133056
0.698947
-0.00442082
0.374998
0.0974626
-0.00816142
0.157816
-0.0227459
0.488239
-0.0357727
0.813867
-0.0454905
1.08717
-0.054316
1.33282
-0.0647646
1.59749
-0.0768891
1.90469
-0.0892725
2.26601
-0.0996504
2.68989
-0.104753
3.18608
-0.101711
3.14448
-0.0928662
2.5937
-0.0810786
2.14687
-0.0679854
1.78161
-0.0548878
1.48
-0.0422021
1.22203
-0.029578
0.973028
-0.0167544
0.686124
-0.00547008
0.363714
0.0919925
-0.0101703
0.167987
-0.0279073
0.505976
-0.0446984
0.830658
-0.0585957
1.10107
-0.0722349
1.34646
-0.0869267
1.61219
-0.102059
1.91982
-0.11624
2.28019
-0.126804
2.70046
-0.130011
3.18928
-0.123462
3.13793
-0.111133
2.58137
-0.0964868
2.13222
-0.0810369
1.76616
-0.0654906
1.46445
-0.0501733
1.20672
-0.0348804
0.957735
-0.0197453
0.670989
-0.00647171
0.35044
0.0855208
-0.0150095
0.182996
-0.0392623
0.530229
-0.0607999
0.852195
-0.0788734
1.11914
-0.0964539
1.36404
-0.114878
1.63061
-0.133171
1.93811
-0.149098
2.29612
-0.159361
2.71072
-0.160099
3.19002
-0.149783
3.12762
-0.133498
2.56508
-0.114707
2.11343
-0.095605
1.74706
-0.0774515
1.4463
-0.0603046
1.18957
-0.0430098
0.94044
-0.024554
0.652533
-0.00781686
0.333703
0.0777039
-0.0192297
0.202226
-0.0507251
0.561724
-0.0802892
0.881759
-0.10476
1.14362
-0.12869
1.38797
-0.152389
1.65431
-0.174187
1.95991
-0.191199
2.31313
-0.200337
2.71986
-0.197555
3.18724
-0.181984
3.11205
-0.160716
2.54381
-0.138078
2.09079
-0.11593
1.72491
-0.0948243
1.42519
-0.0741337
1.16888
-0.0521737
0.91848
-0.0290229
0.629382
-0.0089663
0.313647
0.0687376
-0.0335121
0.235738
-0.07654
0.604752
-0.113255
0.918474
-0.14392
1.17428
-0.174337
1.41838
-0.202172
1.68214
-0.225646
1.98338
-0.242125
2.32961
-0.248381
2.72611
-0.240429
3.17929
-0.219173
3.09079
-0.193172
2.51781
-0.165895
2.06352
-0.139301
1.69832
-0.114103
1.39999
-0.0895438
1.14432
-0.0638494
0.892786
-0.036143
0.601676
-0.0108158
0.288319
0.0579219
-0.0467714
0.282509
-0.112544
0.670524
-0.163677
0.969607
-0.202957
1.21356
-0.239093
1.45452
-0.268686
1.71174
-0.291558
2.00626
-0.305133
2.34318
-0.306307
2.72729
-0.291569
3.16455
-0.263417
3.06264
-0.231205
2.4856
-0.198979
2.03129
-0.168579
1.66792
-0.140234
1.37165
-0.111971
1.11606
-0.0798183
0.860633
-0.042048
0.563905
-0.011098
0.257369
0.0468239
-0.031166
0.313675
-0.0860733
0.725432
-0.134949
1.01848
-0.179014
1.25762
-0.220403
1.49591
-0.258852
1.75018
-0.293733
2.04114
-0.32222
2.37167
-0.340101
2.74517
-0.340403
3.16485
-0.31986
3.0421
-0.287898
2.45364
-0.249609
1.993
-0.208116
1.62643
-0.165397
1.32893
-0.121564
1.07222
-0.0755529
0.814621
-0.0333467
0.521699
-0.00713975
0.231162
0.0396841
-0.00832957
0.322005
-0.0360316
0.753134
-0.072692
1.05514
-0.110218
1.29515
-0.147103
1.53279
-0.182038
1.78512
-0.21338
2.07248
-0.238254
2.39655
-0.252203
2.75912
-0.249053
3.1617
-0.226714
3.01976
-0.192668
2.41959
-0.153558
1.95389
-0.113821
1.58669
-0.0751664
1.29028
-0.039418
1.03648
-0.0108329
0.786036
0.00467578
0.50619
0.00480984
0.231028
0.044494
0.00375991
0.318245
-0.0149339
0.771827
-0.0419232
1.08213
-0.0717467
1.32497
-0.102007
1.56305
-0.131853
1.81497
-0.159224
2.09985
-0.180961
2.41828
-0.19289
2.77105
-0.189355
3.15817
-0.167032
2.99744
-0.135181
2.38774
-0.100381
1.91909
-0.065941
1.55225
-0.034138
1.25847
-0.00733719
1.00967
0.0116821
0.767017
0.0157955
0.502077
0.00766218
0.239162
0.0521561
0.00410145
0.314144
-0.00585679
0.781786
-0.0259597
1.10224
-0.0504485
1.34946
-0.0753441
1.58795
-0.100632
1.84025
-0.124297
2.12352
-0.143244
2.43723
-0.153366
2.78117
-0.148445
3.15325
-0.128169
2.97716
-0.101969
2.36154
-0.0735953
1.89072
-0.0457109
1.52437
-0.0202496
1.23301
0.00132839
0.988096
0.0146567
0.753689
0.0158645
0.500869
0.00658241
0.248444
0.0587386
0.00635965
0.307784
-0.000512251
0.788658
-0.0182548
1.11998
-0.03878
1.36999
-0.0599273
1.6091
-0.0818393
1.86217
-0.102501
2.14418
-0.119238
2.45397
-0.128387
2.79032
-0.125479
3.15034
-0.109318
2.961
-0.0858577
2.33808
-0.0608459
1.86571
-0.0369173
1.50044
-0.0151394
1.21123
0.00250111
0.970456
0.0120263
0.744163
0.0113637
0.501532
0.00421577
0.255592
0.0629543
0.00618458
0.301599
0.0012726
0.79357
-0.0141909
1.13544
-0.0324942
1.38829
-0.0513994
1.628
-0.0708663
1.88163
-0.0893856
2.1627
-0.104811
2.46939
-0.113805
2.79931
-0.111696
3.14823
-0.0964807
2.94578
-0.0763006
2.3179
-0.0554196
1.84483
-0.0350278
1.48005
-0.0172079
1.19341
-0.00334372
0.956592
0.00492313
0.735897
0.00572531
0.50073
0.00207318
0.259244
0.0650275
0.00433105
0.297268
0.00103464
0.796866
-0.0123621
1.14884
-0.0291098
1.40504
-0.0468494
1.64574
-0.0648378
1.89962
-0.0821081
2.17997
-0.0969768
2.48426
-0.1064
2.80873
-0.105749
3.14758
-0.0938167
2.93385
-0.0763254
2.30041
-0.0569822
1.82548
-0.0387821
1.46185
-0.0226916
1.17732
-0.0102466
0.944147
-0.00350758
0.729158
-0.00108745
0.49831
-0.000219554
0.258376
0.0648079
0.00275912
0.294509
1.43756e-05
0.799611
-0.0120302
1.16088
-0.0277097
1.42072
-0.0446111
1.66264
-0.0617381
1.91675
-0.0783381
2.19657
-0.0929193
2.49884
-0.102452
2.81827
-0.102508
3.14764
-0.0911926
2.92254
-0.0743389
2.28356
-0.0569621
1.80811
-0.0404056
1.44529
-0.0267261
1.16364
-0.0162963
0.933717
-0.00905586
0.721917
-0.00553301
0.494787
-0.00173125
0.254574
0.0630767
0.000114543
0.294395
-0.00250824
0.802234
-0.0131273
1.1715
-0.0276151
1.43521
-0.0436463
1.67867
-0.060268
1.93337
-0.0766172
2.21292
-0.0913366
2.51356
-0.101927
2.82886
-0.104586
3.15029
-0.0954667
2.91342
-0.0802932
2.26838
-0.0640402
1.79185
-0.0501379
1.43139
-0.036212
1.14972
-0.024608
0.922113
-0.0155617
0.712871
-0.00796749
0.487192
-0.0024606
0.249067
0.0606161
-0.000435669
0.29483
-0.00503009
0.806828
-0.0147963
1.18127
-0.0281477
1.44856
-0.0433015
1.69383
-0.0595075
1.94958
-0.0758913
2.2293
-0.0910793
2.52875
-0.102615
2.84039
-0.106164
3.15384
-0.0982291
2.90548
-0.0847795
2.25493
-0.0692179
1.77629
-0.0519499
1.41412
-0.0381558
1.13592
-0.0263972
0.910354
-0.0168027
0.703276
-0.00962314
0.480013
-0.00305655
0.242501
0.0575595
-0.00254293
0.297373
-0.00765547
0.81194
-0.0170104
1.19062
-0.029147
1.46069
-0.0434251
1.70811
-0.0591831
1.96533
-0.0756727
2.24579
-0.0915261
2.5446
-0.104567
2.85343
-0.11117
3.16045
-0.106918
2.90123
-0.0930612
2.24108
-0.0756784
1.75891
-0.0607943
1.39923
-0.0467737
1.1219
-0.0344584
0.898039
-0.0230129
0.691831
-0.0113827
0.468383
-0.0035337
0.234652
0.0540258
-0.00395141
0.301325
-0.00922625
0.817215
-0.0183109
1.19971
-0.0300431
1.47243
-0.0437012
1.72176
-0.0590306
1.98066
-0.0755781
2.26234
-0.0920996
2.56112
-0.106618
2.86795
-0.115253
3.16908
-0.111741
2.89772
-0.100351
2.22969
-0.0852662
1.74382
-0.0677581
1.38173
-0.0510162
1.10516
-0.0357557
0.882779
-0.0231759
0.679251
-0.0128762
0.458083
-0.00398614
0.225761
0.0500397
-0.0044301
0.305755
-0.0104679
0.823253
-0.0193856
1.20863
-0.0307497
1.48379
-0.043984
1.735
-0.0589785
1.99566
-0.0755291
2.27889
-0.0927246
2.57832
-0.108825
2.88405
-0.120081
3.18034
-0.120198
2.89783
-0.109583
2.21907
-0.0910841
1.72532
-0.0729224
1.36356
-0.0571166
1.08936
-0.0441786
0.869841
-0.0302774
0.66535
-0.01497
0.442775
-0.00447674
0.215268
0.045563
-0.00438132
0.310136
-0.0108478
0.82972
-0.0198361
1.21761
-0.0310279
1.49498
-0.0440102
1.74798
-0.0587424
2.01039
-0.0752987
2.29544
-0.0930201
2.59604
-0.110414
2.90145
-0.124336
3.19426
-0.12723
2.90073
-0.117652
2.20949
-0.102631
1.7103
-0.0823616
1.3433
-0.0629277
1.06992
-0.0439932
0.850906
-0.0280386
0.649395
-0.0152911
0.430028
-0.00445459
0.204432
0.0411084
-0.0043633
0.314499
-0.0112534
0.83661
-0.0200814
1.22644
-0.0309789
1.50588
-0.0437279
1.76073
-0.0582738
2.02494
-0.0748105
2.31198
-0.0929702
2.6142
-0.111755
2.92023
-0.128268
3.21077
-0.134205
2.90667
-0.127455
2.20274
-0.110476
1.69332
-0.0905221
1.32334
-0.0689921
1.04839
-0.0515755
0.833489
-0.0352462
0.633066
-0.0170941
0.411876
-0.00435388
0.191692
0.0367545
-0.00432231
0.318822
-0.0112046
0.843492
-0.0198794
1.23512
-0.0305373
1.51654
-0.0430517
1.77325
-0.0573901
2.03927
-0.0738761
2.32847
-0.0923445
2.63267
-0.111961
2.93985
-0.129829
3.22864
-0.138952
2.91579
-0.135848
2.19964
-0.123292
1.68077
-0.10112
1.30117
-0.0756292
1.0229
-0.0486577
0.806518
-0.0275979
0.612006
-0.0137015
0.39798
-0.00330728
0.181297
0.0334472
-0.00434786
0.32317
-0.0112801
0.850424
-0.0196283
1.24346
-0.0298912
1.5268
-0.0420516
1.78541
-0.056147
2.05337
-0.0725745
2.34489
-0.0913559
2.65145
-0.112288
2.96078
-0.133929
3.25028
-0.148656
2.93051
-0.147413
2.1984
-0.131599
1.66495
-0.109529
1.2791
-0.0817433
0.995116
-0.0553879
0.780163
-0.0305926
0.587211
-0.011235
0.378622
-0.00267199
0.172734
0.0307752
-0.00425636
0.327426
-0.0109713
0.857139
-0.0190703
1.25156
-0.0289973
1.53673
-0.0407761
1.79718
-0.0545609
2.06715
-0.0708348
2.36117
-0.0898072
2.67042
-0.111255
2.98223
-0.132667
3.27169
-0.147004
2.94485
-0.151432
2.20282
-0.145558
1.65908
-0.123727
1.25727
-0.0925813
0.963971
-0.0502081
0.737789
-0.00844836
0.545451
0.0159551
0.354219
0.0193219
0.169368
0.0500971
-0.00412582
0.331552
-0.0107541
0.863767
-0.0185098
1.25932
-0.0279988
1.54622
-0.039321
1.80851
-0.0527442
2.08058
-0.0688173
2.37724
-0.0878107
2.68942
-0.109872
3.00429
-0.134915
3.29674
-0.15541
2.96535
-0.162644
2.21006
-0.153812
1.65025
-0.135008
1.23846
-0.101532
0.930495
-0.0600303
0.696287
-0.00563162
0.491053
0.0281173
0.32047
0.0138814
0.183603
0.0639785
-0.00388575
0.335437
-0.0102265
0.870108
-0.0177137
1.26681
-0.0268299
1.55533
-0.0377617
1.81944
-0.0507765
2.09359
-0.0665374
2.393
-0.0854566
2.70834
-0.108091
3.02692
-0.133481
3.32213
-0.153472
2.98534
-0.165346
2.22193
-0.168788
1.65369
-0.154132
1.22381
-0.122751
0.899114
-0.0624152
0.635952
0.0350151
0.393622
0.143251
0.212234
0.164733
0.162122
0.228711
-0.00370662
0.339144
-0.0100083
0.87641
-0.017365
1.27416
-0.0263846
1.56435
-0.0373969
1.83045
-0.0507544
2.10695
-0.0672978
2.40955
-0.0876956
2.72873
-0.112724
3.05195
-0.142744
3.35215
-0.171382
3.01398
-0.191107
2.24166
-0.193992
1.65657
-0.18345
1.21327
-0.155134
0.870798
-0.121573
0.602391
-0.141147
0.413195
-0.369016
0.440103
-0.916609
0.709715
0.889727
-1.57762
-0.00348234
0.342626
-0.00949248
0.88242
-0.0166637
1.28133
-0.0255079
1.5732
-0.036378
1.84132
-0.0497454
2.12032
-0.0665751
2.42637
-0.0877579
2.74992
-0.11468
3.07888
-0.148577
3.38604
-0.181497
3.0469
-0.205064
2.26522
-0.228722
1.68023
-0.238471
1.22301
-0.241587
0.873914
-0.31851
0.679314
-0.684421
0.779107
-1.39086
1.14654
-2.0076
1.32646
1.22219
-2.34007
-0.00329897
0.345925
-0.00906024
0.888181
-0.0159475
1.28822
-0.0245231
1.58177
-0.0351957
1.85199
-0.0485365
2.13366
-0.0655772
2.44342
-0.0874368
2.77178
-0.115799
3.10724
-0.152086
3.42233
-0.190672
3.08548
-0.228053
2.3026
-0.254512
1.70669
-0.268428
1.23693
-0.356697
0.962182
-0.738868
1.06149
-1.49019
1.53043
-2.07969
1.73604
-2.32676
1.57353
1.34007
-2.44464
-0.00303751
0.348963
-0.0084204
0.893564
-0.0150457
1.29485
-0.0233843
1.59011
-0.0338503
1.86246
-0.0471321
2.14694
-0.0643467
2.46063
-0.0868908
2.79432
-0.116906
3.13725
-0.15795
3.46338
-0.204643
3.13218
-0.242566
2.34053
-0.287891
1.75202
-0.382544
1.33158
-0.695887
1.27553
-1.39922
1.76481
-2.00209
2.13331
-2.24862
1.98257
-2.36593
1.69083
1.40768
-2.43353
-0.00278347
0.351746
-0.0078299
0.898611
-0.0141002
1.30112
-0.0221035
1.59811
-0.0323653
1.87272
-0.0455449
2.16012
-0.062842
2.47793
-0.0858156
2.81729
-0.117091
3.16853
-0.160214
3.5065
-0.210407
3.18237
-0.266188
2.39631
-0.324408
1.81024
-0.494141
1.50132
-1.05649
1.83787
-1.74893
2.45726
-2.08931
2.47369
-2.24537
2.13862
-2.3313
1.77676
1.4748
-2.39842
-0.0026381
0.354384
-0.00749042
0.903463
-0.0137401
1.30737
-0.0217775
1.60615
-0.0322332
1.88318
-0.0455883
2.17347
-0.0632813
2.49562
-0.0871052
2.84112
-0.120041
3.20146
-0.167096
3.55355
-0.227081
3.24235
-0.281897
2.45112
-0.376221
1.90456
-0.738729
1.86382
-1.45071
2.54985
-1.94647
2.95303
-2.15368
2.6809
-2.26361
2.24855
-2.3421
1.85525
1.54069
-2.408
-0.00262631
0.357011
-0.00774091
0.908578
-0.0142667
1.31389
-0.0226448
1.61453
-0.0335319
1.89406
-0.0474548
2.1874
-0.0659063
2.51407
-0.0907033
2.86591
-0.125059
3.23582
-0.17522
3.60371
-0.235748
3.30288
-0.307894
2.52327
-0.493127
2.08979
-1.00858
2.37927
-1.64081
3.18209
-1.9371
3.24931
-2.09014
2.83395
-2.20916
2.36757
-2.30509
1.95118
1.60572
-2.37012
-0.00255325
0.359564
-0.00777541
0.9138
-0.0146972
1.32081
-0.0235477
1.62338
-0.0349015
1.90542
-0.049391
2.20189
-0.0685262
2.53321
-0.0943898
2.89178
-0.130741
3.27217
-0.183717
3.65669
-0.25166
3.37082
-0.343846
2.61545
-0.605823
2.35177
-1.21736
2.99081
-1.72749
3.69222
-1.94324
3.46506
-2.09158
2.98229
-2.22368
2.49967
-2.34233
2.06983
1.66867
-2.40528
-0.00242185
0.361986
-0.00796095
0.919339
-0.0152119
1.32807
-0.0244578
1.63263
-0.0362623
1.91722
-0.0513578
2.21698
-0.071311
2.55316
-0.0982973
2.91876
-0.135733
3.30961
-0.191376
3.71233
-0.263337
3.44279
-0.384108
2.73623
-0.739511
2.70717
-1.3612
3.6125
-1.74002
4.07104
-1.92425
3.64928
-2.03731
3.09535
-2.13727
2.59963
-2.21293
2.14549
1.66439
-2.20866
-0.00218819
0.364174
-0.00774341
0.924894
-0.0154391
1.33576
-0.0252375
1.64242
-0.0375923
1.92958
-0.0532775
2.23267
-0.0738574
2.57374
-0.101625
2.94653
-0.140792
3.34877
-0.19834
3.76988
-0.277579
3.52202
-0.438763
2.89741
-0.860493
3.1289
-1.41714
4.16915
-1.69712
4.35101
-1.86812
3.82029
-1.97259
3.19981
-1.98326
2.61031
-1.93034
2.09257
1.65344
-1.91938
-0.00194133
0.366115
-0.0077558
0.930709
-0.0157051
1.34371
-0.025812
1.65253
-0.0384769
1.94224
-0.0544612
2.24865
-0.0753592
2.59464
-0.103539
2.97471
-0.14268
3.38791
-0.199605
3.82681
-0.285584
3.608
-0.474397
3.08622
-0.92348
3.57799
-1.38281
4.62848
-1.57174
4.53994
-1.65084
3.89939
-1.66685
3.21583
-1.53052
2.47397
-1.04074
1.60279
0.612703
-0.00137879
0.367494
-0.00698327
0.936313
-0.0154159
1.35214
-0.0262465
1.66336
-0.0398253
1.95582
-0.0569209
2.26575
-0.0792812
2.617
-0.109374
3.0048
-0.151634
3.43017
-0.212737
3.88791
-0.308891
3.70416
-0.542771
3.3201
-1.05049
4.0857
-1.43536
5.01335
-1.54627
4.65085
-1.55786
3.91098
-1.4715
3.12947
-1.23837
2.24084
-0.663397
1.02782
-0.0506948
-0.00095397
0.368448
-0.00647697
0.941836
-0.0151108
1.36078
-0.0264116
1.67466
-0.0406361
1.97005
-0.0587081
2.28382
-0.082519
2.64081
-0.114864
3.03715
-0.160864
3.47617
-0.229976
3.95702
-0.348093
3.82228
-0.626735
3.59874
-1.15439
4.61336
-1.45253
5.3115
-1.53081
4.72913
-1.51953
3.89971
-1.3219
2.93184
-0.819962
1.7389
-0.127932
0.335785
-0.178627
-5.85147e-05
0.368507
-0.00465619
0.946434
-0.01367
1.36979
-0.0257123
1.68671
-0.0407399
1.98507
-0.0598876
2.30297
-0.0851113
2.66603
-0.119459
3.0715
-0.168176
3.52489
-0.239895
4.02874
-0.368372
3.95075
-0.695463
3.92583
-1.22526
5.14315
-1.43314
5.51938
-1.47127
4.76725
-1.39997
3.8284
-1.11812
2.65
-0.36119
0.981965
0.0350555
-0.0604605
-0.143571
0.00102619
0.36748
-0.00304222
0.950502
-0.0121395
1.37889
-0.024579
1.69914
-0.0399504
2.00044
-0.0597335
2.32275
-0.0859819
2.69228
-0.12154
3.10706
-0.172072
3.57542
-0.253671
4.11034
-0.411378
4.10846
-0.782802
4.29726
-1.26528
5.62563
-1.40146
5.65557
-1.41408
4.77987
-1.24785
3.66217
-0.757021
2.15917
-0.0881887
0.313133
0.0386881
-0.187337
-0.104883
0.00285842
0.364622
0.000652592
0.952708
-0.00887381
1.38841
-0.0217319
1.712
-0.0376005
2.01631
-0.0582943
2.34344
-0.0855605
2.71955
-0.122518
3.14401
-0.174731
3.62764
-0.259537
4.19514
-0.42424
4.27316
-0.83673
4.70975
-1.24899
6.03789
-1.33594
5.74252
-1.31654
4.76048
-1.05373
3.39935
-0.402386
1.50783
-0.0224787
-0.0667742
0.00966795
-0.219484
-0.0952152
0.00413473
0.360487
0.00279079
0.954052
-0.0058283
1.39703
-0.0182287
1.7244
-0.03397
2.03205
-0.0546716
2.36415
-0.0820435
2.74692
-0.119159
3.18113
-0.171533
3.68001
-0.262273
4.28588
-0.447078
4.45797
-0.883712
5.14638
-1.20059
6.35476
-1.25005
5.79198
-1.16882
4.67924
-0.856279
3.08681
-0.167672
0.819219
-0.0027134
-0.231733
-0.00169928
-0.220498
-0.0969144
0.00661143
0.353876
0.00743269
0.953231
0.000606537
1.40386
-0.0115006
1.73651
-0.0275344
2.04809
-0.0486888
2.3853
-0.075901
2.77413
-0.112403
3.21763
-0.163367
3.73097
-0.253442
4.37596
-0.447098
4.65162
-0.87054
5.56982
-1.10407
6.58829
-1.13381
5.82173
-0.984593
4.53002
-0.557697
2.65992
-0.0108568
0.272379
0.0265089
-0.269098
0.0165843
-0.210574
-0.0803302
0.00903478
0.344841
0.0124031
0.949862
0.00691593
1.40935
-0.00349587
1.74692
-0.0194032
2.06399
-0.0393525
2.40525
-0.0648711
2.79965
-0.100063
3.25282
-0.149949
3.78086
-0.239791
4.4658
-0.439201
4.85103
-0.819859
5.95048
-0.993412
6.76184
-1.03314
5.86146
-0.837997
4.33488
-0.319881
2.1418
-0.0146618
-0.0328402
-0.00595862
-0.277802
0.0120765
-0.228609
-0.0682537
0.0131876
0.331653
0.0208843
0.942166
0.0179438
1.41229
0.00820302
1.75666
-0.00698619
2.07918
-0.0251212
2.42338
-0.0492147
2.82374
-0.081619
3.28523
-0.126187
3.82543
-0.206841
4.54646
-0.397071
5.04126
-0.704365
6.25778
-0.820754
6.87823
-0.835922
5.87663
-0.663208
4.16216
-0.182393
1.66099
-0.0781182
-0.137115
-0.04988
-0.30604
-0.00622588
-0.272263
-0.0744795
0.0173411
0.314312
0.0295851
0.929922
0.0294301
1.41244
0.021615
1.76448
0.00929419
2.0915
-0.00614177
2.43882
-0.0270977
2.8447
-0.0536416
3.31177
-0.0901914
3.86198
-0.155932
4.6122
-0.319065
5.2044
-0.529419
6.46813
-0.625712
6.97452
-0.689205
5.94012
-0.618927
4.09189
-0.380553
1.42261
-0.419923
-0.0977452
-0.293645
-0.432318
-0.135577
-0.43033
-0.210057
0.0231687
0.291144
0.0425074
0.910583
0.0472309
1.40772
0.0421358
1.76957
0.0324249
2.10122
0.0194423
2.4518
0.0024406
2.8617
-0.0192462
3.33346
-0.0459646
3.8887
-0.08676
4.65299
-0.187084
5.30472
-0.299198
6.58024
-0.376465
7.05179
-0.452966
6.01662
-0.542392
4.18131
-0.64572
1.52594
-0.708366
-0.0350989
-0.527395
-0.613289
-0.254105
-0.703621
-0.464162
0.0288883
0.262255
0.0560148
0.883456
0.0664877
1.39725
0.0663535
1.76971
0.0602727
2.1073
0.0512362
2.46084
0.0406338
2.8723
0.0273244
3.34677
0.0129565
3.90307
0.00112091
4.66483
0.0075031
5.29834
0.0065905
6.58116
-0.000721442
7.0591
-0.0377476
6.05365
-0.118834
4.2624
-0.373086
1.78019
-0.644823
0.236637
-0.593399
-0.664712
-0.294236
-1.00278
-0.758397
0.0358743
0.226381
0.074091
0.84524
0.0929668
1.37837
0.0972412
1.76543
0.0951628
2.10937
0.0913798
2.46462
0.0882151
2.87547
0.0864535
3.34853
0.0889902
3.90053
0.114762
4.63906
0.190661
5.22244
0.406654
6.36516
0.596641
6.86912
0.845748
5.80454
0.852149
4.256
0.466868
2.16547
0.105565
0.59794
-0.145669
-0.413478
-0.174793
-0.97366
-0.93319
0.0417055
0.184676
0.0928678
0.794077
0.121868
1.34937
0.133705
1.7536
0.13863
2.10445
0.140306
2.46295
0.145286
2.87049
0.152669
3.34114
0.17391
3.87929
0.245051
4.56791
0.426821
5.04067
0.906073
5.88591
1.28909
6.4861
1.65814
5.43548
1.7576
4.15654
1.39427
2.5288
0.980339
1.01188
0.548045
0.0188151
0.192481
-0.618097
-0.740708
0.0458697
0.138806
0.113488
0.726459
0.156257
1.3066
0.176204
1.73365
0.188477
2.09218
0.195789
2.45563
0.20845
2.85783
0.230362
3.31923
0.261925
3.84772
0.35887
4.47097
0.610972
4.78857
1.26784
5.22905
1.69173
6.06221
1.99694
5.13028
2.10869
4.04479
1.83106
2.80643
1.33497
1.50797
0.853709
0.50008
0.383894
-0.148282
-0.356815
0.044476
0.0943299
0.131567
0.639368
0.192933
1.24523
0.225305
1.70128
0.2457
2.07178
0.259579
2.44175
0.279253
2.83815
0.310358
3.28813
0.349014
3.80907
0.455883
4.3641
0.720445
4.52401
1.31135
4.63814
1.73541
5.63815
1.97307
4.89261
2.05548
3.96238
1.86514
2.99677
1.41888
1.95422
0.903566
1.0154
0.382158
0.373127
0.025343
0.0386957
0.0556342
0.148764
0.529299
0.233059
1.16094
0.280969
1.65337
0.311965
2.04079
0.335074
2.41865
0.360017
2.81321
0.390678
3.25747
0.436423
3.76332
0.519469
4.28105
0.701043
4.34243
1.11433
4.22486
1.55302
5.19946
1.68377
4.76186
1.70345
3.94271
1.56684
3.13338
1.22259
2.29847
0.781481
1.4565
0.330192
0.824416
0.355535
0.0333935
0.0222407
0.166063
0.39663
0.274491
1.05251
0.339813
1.58805
0.38096
1.99964
0.413681
2.38592
0.440296
2.7866
0.474444
3.22332
0.509618
3.72815
0.530652
4.26002
0.619496
4.25359
0.902936
3.94142
1.29118
4.81121
1.35455
4.69849
1.29543
4.00183
1.15028
3.27853
0.891636
2.55711
0.548885
1.79925
0.210342
1.16296
0.565878
0.0333282
-0.0110875
0.167377
0.262581
0.312962
0.906927
0.407712
1.4933
0.463908
1.94344
0.508753
2.34108
0.54205
2.7533
0.574613
3.19076
0.589385
3.71338
0.553928
4.29548
0.561923
4.24559
0.718792
3.78455
1.04976
4.48024
1.09345
4.6548
0.990986
4.10429
0.839485
3.43003
0.628732
2.76786
0.36622
2.06176
0.128316
1.40086
0.694194
0.0283248
-0.0394123
0.109929
0.180977
0.249842
0.767015
0.36158
1.38156
0.432993
1.87203
0.47815
2.29592
0.505475
2.72597
0.505379
3.19085
0.489205
3.72955
0.419391
4.36529
0.352125
4.31286
0.357762
3.77891
0.538197
4.29981
0.551628
4.64137
0.486442
4.16948
0.392102
3.52437
0.285573
2.87439
0.152171
2.19517
0.0421347
1.5109
0.736328
-0.00136551
-0.0380468
0.00143058
0.17818
0.0740143
0.694431
0.170634
1.28494
0.25768
1.78498
0.324934
2.22867
0.379501
2.67141
0.394025
3.17633
0.402899
3.72068
0.347286
4.4209
0.236798
4.42335
0.179752
3.83596
0.29474
4.18482
0.309934
4.62617
0.265753
4.21366
0.202051
3.58808
0.127924
2.94852
0.0468481
2.27624
-0.00873396
1.56648
0.727594
-0.0229232
-0.0151236
-0.0517392
0.206996
-0.0350221
0.677714
0.0385807
1.21133
0.127168
1.6964
0.211877
2.14396
0.288586
2.5947
0.339475
3.12544
0.377934
3.68222
0.343644
4.45519
0.207343
4.55965
0.102964
3.94034
0.140914
4.14687
0.159955
4.60713
0.135797
4.23782
0.0883773
3.63549
0.0299018
3.00699
-0.0134579
2.3196
-0.0311087
1.58413
0.696486
-0.0301561
0.0150325
-0.0763831
0.253223
-0.0843217
0.685653
-0.0349742
1.16199
0.0493276
1.61209
0.145583
2.04771
0.242642
2.49764
0.334215
3.03386
0.403796
3.61264
0.409738
4.44925
0.271647
4.69774
0.10721
4.10478
0.0900746
4.164
0.0950285
4.60218
0.0574642
4.27538
0.00538779
3.68757
-0.0402735
3.05266
-0.0606843
2.34001
-0.0519512
1.5754
0.644535
-0.0286498
0.0436824
-0.0743481
0.298922
-0.0909348
0.702239
-0.0549758
1.12603
0.02409
1.53303
0.13058
1.94122
0.251872
2.37635
0.390672