/*--------------------------------*- C++ -*----------------------------------*\
| =========                 |                                                 |
| \\      /  F ield         | OpenFOAM: The Open Source CFD Toolbox           |
|  \\    /   O peration     | Version:  v2012                                 |
|   \\  /    A nd           | Website:  www.openfoam.com                      |
|    \\/     M anipulation  |                                                 |
\*---------------------------------------------------------------------------*/
FoamFile
{
    version     2.0;
    format      ascii;
    class       volVectorField;
    location    "22";
    object      U;
}
// * * * * * * * * * * * * * * * * * * * * * * * * * * * * * * * * * * * * * //

dimensions      [0 1 -1 0 0 0 0];


internalField   nonuniform List<vector> 
2200
(
(0.878841 -0.0304102 0)
(1.00578 -0.0512955 0)
(1.00325 -0.0353962 0)
(1.00027 -0.0244739 0)
(1.00001 -0.0166937 0)
(1.00012 -0.0106902 0)
(0.99996 -0.00680449 0)
(0.999819 -0.00419987 0)
(0.999807 -0.00228487 0)
(1.00017 -0.000803203 0)
(1.00006 0.00102314 0)
(0.999828 0.00249092 0)
(0.999807 0.00437029 0)
(0.999955 0.00697618 0)
(1.00012 0.010799 0)
(0.999989 0.0167878 0)
(1.00029 0.0245591 0)
(1.00334 0.0354277 0)
(1.0058 0.0513235 0)
(0.878859 0.0304286 0)
(0.71195 -0.0327417 0)
(0.996609 -0.0629694 0)
(1.03323 -0.0561553 0)
(1.02485 -0.0464596 0)
(1.01587 -0.0362375 0)
(1.00964 -0.0266791 0)
(1.00595 -0.0184341 0)
(1.00392 -0.0115621 0)
(1.0028 -0.00603077 0)
(1.00218 -0.0015874 0)
(1.00218 0.00223252 0)
(1.00272 0.00666321 0)
(1.00386 0.0120973 0)
(1.00588 0.0188853 0)
(1.00956 0.0271356 0)
(1.01584 0.0366359 0)
(1.02473 0.0467723 0)
(1.03298 0.0564691 0)
(0.996465 0.0631331 0)
(0.711713 0.0327918 0)
(0.53582 -0.023873 0)
(0.969979 -0.0567886 0)
(1.05631 -0.0545438 0)
(1.0519 -0.048447 0)
(1.03584 -0.0401465 0)
(1.02433 -0.0320943 0)
(1.01599 -0.0238725 0)
(1.01045 -0.0161289 0)
(1.00711 -0.00894327 0)
(1.00559 -0.00240913 0)
(1.00552 0.00363002 0)
(1.00697 0.0101431 0)
(1.01032 0.0172251 0)
(1.01581 0.0248651 0)
(1.02412 0.0328648 0)
(1.03554 0.0407377 0)
(1.0516 0.048894 0)
(1.05607 0.0547409 0)
(0.969431 0.0570565 0)
(0.535071 0.0239286 0)
(0.39288 -0.0135355 0)
(0.912211 -0.0462365 0)
(1.05768 -0.0465717 0)
(1.06967 -0.043878 0)
(1.0547 -0.0374269 0)
(1.03924 -0.030641 0)
(1.02763 -0.024016 0)
(1.01908 -0.0171426 0)
(1.01349 -0.0100622 0)
(1.01071 -0.00281387 0)
(1.01065 0.00450732 0)
(1.01332 0.0116527 0)
(1.01872 0.0185606 0)
(1.02713 0.0251505 0)
(1.03857 0.0315882 0)
(1.05406 0.0382741 0)
(1.06898 0.0446314 0)
(1.05668 0.047166 0)
(0.911007 0.0465605 0)
(0.391429 0.0136205 0)
(0.308949 -0.00442066 0)
(0.847428 -0.0321074 0)
(1.04993 -0.0396973 0)
(1.07993 -0.0380314 0)
(1.06846 -0.0331904 0)
(1.05139 -0.0273951 0)
(1.03801 -0.0221903 0)
(1.02805 -0.0163272 0)
(1.02127 -0.0097657 0)
(1.01769 -0.00262007 0)
(1.01755 0.00498619 0)
(1.02088 0.0118994 0)
(1.02745 0.0181725 0)
(1.03715 0.0238412 0)
(1.0506 0.0288707 0)
(1.06759 0.03442 0)
(1.07884 0.0390523 0)
(1.04839 0.0405352 0)
(0.845028 0.0324943 0)
(0.306649 0.0045205 0)
(0.266283 0.000122514 0)
(0.790574 -0.0195545 0)
(1.0337 -0.0305927 0)
(1.08382 -0.0313062 0)
(1.07767 -0.0283347 0)
(1.06102 -0.0236427 0)
(1.04697 -0.0191683 0)
(1.03574 -0.0143437 0)
(1.02783 -0.00872854 0)
(1.02363 -0.00207301 0)
(1.02334 0.00519611 0)
(1.02709 0.0116108 0)
(1.03467 0.0169037 0)
(1.04593 0.0213807 0)
(1.05969 0.0255057 0)
(1.07623 0.0298542 0)
(1.08212 0.0324925 0)
(1.03137 0.0314782 0)
(0.787002 0.0199564 0)
(0.263205 -3.35212e-05 0)
(0.243421 0.00120622 0)
(0.742502 -0.0116542 0)
(1.015 -0.0234456 0)
(1.08356 -0.0251066 0)
(1.08242 -0.0232756 0)
(1.06742 -0.0196167 0)
(1.05383 -0.0160137 0)
(1.04283 -0.011769 0)
(1.03472 -0.006897 0)
(1.02994 -0.0010635 0)
(1.0296 0.00499041 0)
(1.03379 0.0105976 0)
(1.0415 0.0151008 0)
(1.05188 0.0189153 0)
(1.06541 0.0220326 0)
(1.08021 0.0253244 0)
(1.08086 0.0267488 0)
(1.01113 0.0246158 0)
(0.737125 0.0121663 0)
(0.239333 -0.00109632 0)
(0.230232 0.00115149 0)
(0.701707 -0.00739666 0)
(0.995456 -0.0193447 0)
(1.08134 -0.0213423 0)
(1.08513 -0.0196346 0)
(1.07174 -0.016609 0)
(1.05864 -0.0133772 0)
(1.04845 -0.00938154 0)
(1.04086 -0.00494248 0)
(1.03617 6.66366e-05 0)
(1.03577 0.00485859 0)
(1.03967 0.00950004 0)
(1.04649 0.0133857 0)
(1.05636 0.0166855 0)
(1.06924 0.0196155 0)
(1.08207 0.0220815 0)
(1.07766 0.0233312 0)
(0.990071 0.0207794 0)
(0.694182 0.00800672 0)
(0.224993 -0.00100716 0)
(0.222273 0.000714053 0)
(0.668661 -0.00452536 0)
(0.976636 -0.0156431 0)
(1.07896 -0.0178072 0)
(1.08755 -0.0163119 0)
(1.07509 -0.0138928 0)
(1.06178 -0.0108563 0)
(1.05169 -0.00730518 0)
(1.04421 -0.00338149 0)
(1.03963 0.00088812 0)
(1.03889 0.00510592 0)
(1.04222 0.00900095 0)
(1.04883 0.012356 0)
(1.05854 0.0155094 0)
(1.0713 0.0175806 0)
(1.08337 0.0194269 0)
(1.07375 0.0203883 0)
(0.969027 0.0173657 0)
(0.658617 0.00525507 0)
(0.215594 -0.000529498 0)
(0.218158 0.000383555 0)
(0.646176 -0.00189337 0)
(0.960544 -0.0105938 0)
(1.07638 -0.0129003 0)
(1.08998 -0.0120171 0)
(1.07802 -0.0101346 0)
(1.0643 -0.00795858 0)
(1.05356 -0.0051677 0)
(1.04577 -0.0018439 0)
(1.04114 0.0019388 0)
(1.04027 0.0060261 0)
(1.04346 0.00924773 0)
(1.05024 0.0117841 0)
(1.05972 0.0134322 0)
(1.07318 0.0148223 0)
(1.08445 0.0159873 0)
(1.06936 0.0160081 0)
(0.950066 0.0126499 0)
(0.633161 0.00279907 0)
(0.209693 -0.000184493 0)
(0.216984 0.000135498 0)
(0.633676 -0.000217539 0)
(0.947505 -0.00576551 0)
(1.07344 -0.00783652 0)
(1.09204 -0.00754091 0)
(1.08127 -0.0060551 0)
(1.06744 -0.00439164 0)
(1.05644 -0.00248732 0)
(1.04818 1.22129e-05 0)
(1.04315 0.00304076 0)
(1.04201 0.00657224 0)
(1.04503 0.00884181 0)
(1.05181 0.0104484 0)
(1.06224 0.0110934 0)
(1.07545 0.0120118 0)
(1.08465 0.01243 0)
(1.06387 0.0115745 0)
(0.933939 0.00819038 0)
(0.617249 0.00127214 0)
(0.206245 5.07427e-05 0)
(0.217304 -2.95854e-06 0)
(0.628234 0.000488634 0)
(0.9391 -0.00247678 0)
(1.07111 -0.00443725 0)
(1.09382 -0.0044759 0)
(1.08443 -0.00324685 0)
(1.07107 -0.00175198 0)
(1.06047 2.31979e-05 0)
(1.05235 0.00228342 0)
(1.04719 0.00474794 0)
(1.04562 0.00744296 0)
(1.04798 0.00902347 0)
(1.05399 0.00993687 0)
(1.06327 0.0108222 0)
(1.07553 0.0103777 0)
(1.08386 0.0100325 0)
(1.05852 0.00882693 0)
(0.921846 0.00556273 0)
(0.608103 0.000877491 0)
(0.204132 0.000177406 0)
(0.218529 1.07412e-06 0)
(0.627529 0.000895621 0)
(0.934422 -0.000522843 0)
(1.0692 -0.00199084 0)
(1.09463 -0.00203565 0)
(1.08622 -0.00131559 0)
(1.07342 -0.000284494 0)
(1.0632 0.00154386 0)
(1.05553 0.00382435 0)
(1.05046 0.00637384 0)
(1.04841 0.00881932 0)
(1.04994 0.0102972 0)
(1.05502 0.0110143 0)
(1.06303 0.0111348 0)
(1.07477 0.0102343 0)
(1.08172 0.00957786 0)
(1.05271 0.00792956 0)
(0.911558 0.00458987 0)
(0.600923 0.00105237 0)
(0.201707 0.000255714 0)
(0.220276 0.000235103 0)
(0.628212 0.00119294 0)
(0.930955 0.000858414 0)
(1.06753 -0.000176311 0)
(1.09465 -0.000316533 0)
(1.0867 0.000202818 0)
(1.07423 0.00125465 0)
(1.06411 0.0031879 0)
(1.05637 0.00551734 0)
(1.05113 0.008349 0)
(1.04869 0.0107693 0)
(1.04976 0.012308 0)
(1.05446 0.0125373 0)
(1.06212 0.0118858 0)
(1.07315 0.010745 0)
(1.07832 0.00938391 0)
(1.04671 0.0070351 0)
(0.903121 0.003785 0)
(0.595393 0.00105691 0)
(0.1994 0.000253473 0)
(0.22344 0.000414457 0)
(0.631008 0.00159232 0)
(0.930451 0.0023594 0)
(1.06628 0.00180188 0)
(1.09453 0.00159378 0)
(1.08759 0.0019172 0)
(1.07576 0.00287327 0)
(1.06591 0.00483772 0)
(1.05808 0.00737144 0)
(1.05235 0.0105045 0)
(1.04922 0.0129701 0)
(1.04949 0.0145209 0)
(1.05329 0.0146317 0)
(1.06012 0.013742 0)
(1.06999 0.0122405 0)
(1.07352 0.0100386 0)
(1.03968 0.00704856 0)
(0.894731 0.00360045 0)
(0.589654 0.00115731 0)
(0.196843 0.000270268 0)
(0.226858 0.000423218 0)
(0.635089 0.00195792 0)
(0.931634 0.00356039 0)
(1.06536 0.00322329 0)
(1.09468 0.00303625 0)
(1.08925 0.00342515 0)
(1.07856 0.00490849 0)
(1.06933 0.00730833 0)
(1.06152 0.0102421 0)
(1.05515 0.0136366 0)
(1.05102 0.0160695 0)
(1.05011 0.0174415 0)
(1.0526 0.0172795 0)
(1.05819 0.016143 0)
(1.06622 0.0139244 0)
(1.06767 0.0109754 0)
(1.03168 0.00731007 0)
(0.886547 0.00381039 0)
(0.584247 0.00147543 0)
(0.19414 0.000334634 0)
(0.232084 0.000507269 0)
(0.643433 0.00248852 0)
(0.935068 0.00463066 0)
(1.06549 0.00510209 0)
(1.09496 0.00509723 0)
(1.09112 0.00552861 0)
(1.08177 0.00729229 0)
(1.07323 0.010059 0)
(1.06548 0.0135471 0)
(1.05854 0.0172413 0)
(1.05332 0.0197397 0)
(1.05123 0.020782 0)
(1.0522 0.0202561 0)
(1.05627 0.0186663 0)
(1.06191 0.0161281 0)
(1.06121 0.01266 0)
(1.02348 0.00869544 0)
(0.878347 0.00484874 0)
(0.577466 0.00204038 0)
(0.190336 0.000441834 0)
(0.236903 0.000627652 0)
(0.649772 0.00287693 0)
(0.939017 0.00556115 0)
(1.0669 0.00672953 0)
(1.09602 0.00736174 0)
(1.09338 0.00853896 0)
(1.08515 0.010913 0)
(1.07687 0.0142667 0)
(1.0688 0.0182332 0)
(1.06088 0.0221432 0)
(1.05433 0.0246272 0)
(1.05082 0.0251616 0)
(1.0502 0.0241173 0)
(1.05252 0.0217939 0)
(1.0559 0.018514 0)
(1.05291 0.01421 0)
(1.01334 0.00962949 0)
(0.86819 0.00560719 0)
(0.569056 0.00251172 0)
(0.185578 0.000539483 0)
(0.244936 0.00085461 0)
(0.662552 0.00395226 0)
(0.947196 0.00777209 0)
(1.07008 0.00992942 0)
(1.09805 0.0112166 0)
(1.09651 0.0129527 0)
(1.08913 0.0158988 0)
(1.08099 0.0196904 0)
(1.07226 0.0239562 0)
(1.06304 0.0278426 0)
(1.05489 0.0299677 0)
(1.04979 0.0296409 0)
(1.04768 0.0276021 0)
(1.04824 0.0244063 0)
(1.04957 0.020403 0)
(1.04462 0.0159219 0)
(1.00398 0.0113357 0)
(0.858817 0.00695907 0)
(0.559588 0.00310783 0)
(0.179747 0.000642058 0)
(0.253088 0.00111322 0)
(0.674114 0.00467146 0)
(0.955981 0.00939167 0)
(1.07542 0.01259 0)
(1.10247 0.0154175 0)
(1.10134 0.0185274 0)
(1.09435 0.0223924 0)
(1.08592 0.0269025 0)
(1.07621 0.0316263 0)
(1.06537 0.0354198 0)
(1.05516 0.0369118 0)
(1.048 0.0355741 0)
(1.04398 0.0324543 0)
(1.04248 0.0283517 0)
(1.04179 0.0235148 0)
(1.03475 0.0181333 0)
(0.991932 0.0127719 0)
(0.845141 0.00799058 0)
(0.546819 0.00365739 0)
(0.172561 0.000755908 0)
(0.266086 0.00146677 0)
(0.693932 0.00666444 0)
(0.970691 0.0130701 0)
(1.08426 0.017756 0)
(1.10907 0.0214373 0)
(1.10796 0.0255167 0)
(1.10076 0.0304991 0)
(1.09151 0.035874 0)
(1.08029 0.0409801 0)
(1.06723 0.0445612 0)
(1.05455 0.0451281 0)
(1.04508 0.0424465 0)
(1.03919 0.0378794 0)
(1.03582 0.0324631 0)
(1.03326 0.0266583 0)
(1.0247 0.0210553 0)
(0.980989 0.0155502 0)
(0.833653 0.0101439 0)
(0.533857 0.00456911 0)
(0.164363 0.000902577 0)
(0.281003 0.00205945 0)
(0.716185 0.00799067 0)
(0.988062 0.0161847 0)
(1.09604 0.0224929 0)
(1.11856 0.0280731 0)
(1.11664 0.0343804 0)
(1.10848 0.0407742 0)
(1.09771 0.0471935 0)
(1.08434 0.0527809 0)
(1.06867 0.0560539 0)
(1.05322 0.0553811 0)
(1.04116 0.0511092 0)
(1.03303 0.045092 0)
(1.02772 0.0385967 0)
(1.02349 0.0318578 0)
(1.01296 0.0250844 0)
(0.965921 0.0184253 0)
(0.813793 0.0119151 0)
(0.514072 0.00539706 0)
(0.153574 0.00107817 0)
(0.302639 0.00294961 0)
(0.746395 0.011898 0)
(1.01135 0.0220137 0)
(1.11207 0.0303948 0)
(1.13145 0.0376445 0)
(1.12794 0.0456273 0)
(1.11784 0.0535243 0)
(1.10458 0.0611347 0)
(1.08817 0.067089 0)
(1.06902 0.0697368 0)
(1.05001 0.067676 0)
(1.03509 0.0617303 0)
(1.0249 0.0539876 0)
(1.01778 0.0456342 0)
(1.01192 0.037482 0)
(0.999878 0.0298117 0)
(0.951252 0.022364 0)
(0.798112 0.014904 0)
(0.49601 0.00667272 0)
(0.142149 0.00119728 0)
(0.333203 0.00408226 0)
(0.78777 0.0147279 0)
(1.04216 0.0291286 0)
(1.13344 0.040279 0)
(1.14841 0.0500082 0)
(1.14195 0.0607383 0)
(1.12862 0.0707102 0)
(1.11187 0.0792652 0)
(1.09171 0.0852378 0)
(1.06867 0.0869372 0)
(1.04617 0.0829629 0)
(1.02828 0.0746283 0)
(1.01547 0.064881 0)
(1.00633 0.05511 0)
(0.998732 0.0456264 0)
(0.984315 0.0365899 0)
(0.930705 0.0274967 0)
(0.768386 0.0178608 0)
(0.465107 0.00766941 0)
(0.126325 0.00137129 0)
(0.369699 0.00801612 0)
(0.837629 0.0244187 0)
(1.08079 0.041216 0)
(1.15992 0.05586 0)
(1.16959 0.067959 0)
(1.15846 0.0818313 0)
(1.14088 0.0927181 0)
(1.11956 0.101649 0)
(1.09468 0.106968 0)
(1.0668 0.106889 0)
(1.03971 0.100435 0)
(1.01843 0.0898741 0)
(1.00353 0.0781035 0)
(0.992615 0.0662037 0)
(0.983219 0.0549583 0)
(0.966336 0.0440791 0)
(0.908852 0.0332164 0)
(0.744901 0.0220039 0)
(0.440611 0.00971318 0)
(0.112054 0.00134265 0)
(0.453597 0.0115976 0)
(0.916281 0.0343956 0)
(1.13179 0.0607649 0)
(1.19277 0.078631 0)
(1.19555 0.095343 5.54309e-35)
(1.17714 0.110571 -4.18351e-35)
(1.1536 0.121697 0)
(1.12649 0.130151 0)
(1.09623 0.13373 0)
(1.06348 0.131171 0)
(1.03256 0.121842 0)
(1.00828 0.108129 0)
(0.990196 0.0936502 0)
(0.976795 0.0798829 0)
(0.965299 0.0669389 0)
(0.945048 0.0546988 0)
(0.880244 0.0418225 0)
(0.701012 0.027301 0)
(0.390305 0.0103251 0)
(0.088078 0.00111536 0)
(0.520145 0.0266714 -9.02005e-21)
(1.00601 0.0588434 6.16528e-21)
(1.18756 0.0931717 0)
(1.22874 0.114646 6.2523e-23)
(1.22204 0.134265 -5.06647e-23)
(1.19538 0.148929 4.41378e-35)
(1.16525 0.159116 0)
(1.13197 0.165811 4.45851e-21)
(1.09579 0.166973 -1.61321e-20)
(1.057 0.161407 3.59176e-21)
(1.02018 0.148425 0)
(0.991081 0.131729 -1.20404e-20)
(0.970626 0.115322 -1.512e-20)
(0.954964 0.0994074 2.66012e-20)
(0.940053 0.0845034 -2.14219e-20)
(0.913751 0.0694595 0)
(0.837077 0.0529478 -8.26599e-21)
(0.644053 0.034703 0)
(0.341864 0.0156796 -4.46422e-20)
(0.0704648 0.00195945 5.28438e-20)
(0.548487 0.0547057 2.01573e-22)
(1.05823 0.102588 -4.94299e-20)
(1.23127 0.144998 1.24462e-20)
(1.26166 0.163498 2.00233e-20)
(1.24594 0.182433 6.39192e-22)
(1.21152 0.194987 -2.55312e-22)
(1.17478 0.203361 0)
(1.13511 0.207904 0)
(1.09253 0.20668 2.51943e-20)
(1.04758 0.198331 0)
(1.00598 0.182774 4.11676e-20)
(0.973164 0.164296 1.29177e-20)
(0.946756 0.145533 3.44671e-22)
(0.92563 0.128324 -2.99155e-20)
(0.906899 0.112414 0)
(0.876991 0.0975139 0)
(0.798451 0.0779809 -1.3984e-19)
(0.613408 0.0562182 3.50995e-19)
(0.329608 0.0266521 -2.08618e-19)
(0.0700183 0.00683231 -2.47628e-19)
(0.551484 0.0797262 8.28465e-20)
(1.08704 0.1607 -2.44643e-20)
(1.26371 0.207573 -6.66217e-21)
(1.28792 0.22316 -3.81525e-20)
(1.26458 0.238865 1.37089e-20)
(1.22383 0.247336 5.94445e-21)
(1.18109 0.252407 2.14848e-21)
(1.13531 0.253883 0)
(1.08667 0.249711 -5.20329e-20)
(1.03574 0.238463 5.93827e-20)
(0.987594 0.22039 -1.12676e-19)
(0.948141 0.198839 5.51574e-20)
(0.919645 0.17952 -4.1143e-20)
(0.897219 0.16192 8.98897e-20)
(0.875309 0.14592 0)
(0.843707 0.13037 -3.55191e-20)
(0.768611 0.111631 0)
(0.598584 0.0812267 2.02072e-19)
(0.33312 0.0452874 -4.79589e-19)
(0.0823479 0.0114291 3.01006e-19)
(0.539589 0.111745 -3.89296e-19)
(1.10132 0.219693 1.5573e-19)
(1.28341 0.274831 2.52946e-20)
(1.30552 0.287957 0)
(1.27704 0.299957 2.14031e-20)
(1.23158 0.303702 -2.35464e-20)
(1.18368 0.304856 -2.17868e-21)
(1.13244 0.302607 0)
(1.07846 0.294765 3.66771e-20)
(1.02224 0.279842 -4.06764e-20)
(0.969589 0.257819 9.91711e-20)
(0.927884 0.235509 0)
(0.894478 0.215201 -8.65914e-20)
(0.867235 0.197572 4.75732e-20)
(0.844134 0.18148 1.30229e-19)
(0.813686 0.166335 -1.14594e-19)
(0.74424 0.145604 1.89895e-19)
(0.58971 0.110939 -4.21956e-19)
(0.344687 0.0652365 2.67887e-19)
(0.0944822 0.0186808 -3.36064e-19)
(0.522437 0.135919 2.39076e-19)
(1.10328 0.274749 -1.76153e-19)
(1.29304 0.342359 7.91631e-20)
(1.3148 0.353568 -1.09724e-19)
(1.2828 0.36227 7.47196e-20)
(1.23409 0.361665 -1.29056e-20)
(1.18225 0.358875 3.67696e-21)
(1.12684 0.352624 -2.16471e-20)
(1.06856 0.340839 -3.63247e-20)
(1.00765 0.322187 -8.74968e-20)
(0.95078 0.298247 -2.14176e-19)
(0.904785 0.273436 -7.27287e-20)
(0.870294 0.251557 2.70724e-21)
(0.84382 0.233216 -1.72439e-19)
(0.819609 0.217133 -6.33769e-21)
(0.788886 0.200412 1.68568e-19)
(0.724699 0.178781 -5.25153e-20)
(0.583265 0.140455 -3.06918e-20)
(0.35281 0.0859656 0)
(0.102483 0.0257742 7.21466e-19)
(0.502999 0.157406 0)
(1.09461 0.325637 5.43308e-20)
(1.29471 0.406671 0)
(1.31776 0.417601 -1.22171e-20)
(1.28326 0.424076 -9.01023e-20)
(1.2322 0.419499 2.10688e-20)
(1.17738 0.412962 -1.44007e-21)
(1.11871 0.402758 3.98587e-20)
(1.05669 0.387177 -2.21411e-20)
(0.99169 0.364816 3.77239e-20)
(0.930559 0.33685 1.15627e-19)
(0.881644 0.308778 1.61331e-19)
(0.844825 0.285816 -1.01165e-19)
(0.815839 0.266387 1.87195e-19)
(0.793425 0.249827 -1.5057e-19)
(0.766847 0.234392 0)
(0.709609 0.212222 -4.02693e-19)
(0.578075 0.170239 5.41309e-19)
(0.356788 0.105485 4.09871e-20)
(0.106606 0.0323118 -7.65255e-19)
(0.487268 0.178112 -5.51726e-21)
(1.08471 0.374777 -1.4232e-19)
(1.29138 0.467893 -4.3138e-19)
(1.3156 0.478896 2.39511e-19)
(1.27897 0.483873 -5.41064e-20)
(1.2264 0.475934 3.03972e-20)
(1.16942 0.46608 -1.59567e-20)
(1.10815 0.452272 -9.98351e-22)
(1.04293 0.433084 -7.59173e-20)
(0.97454 0.407292 7.72747e-22)
(0.911389 0.375944 -1.26258e-19)
(0.862841 0.347091 -1.72007e-19)
(0.827195 0.322405 1.14218e-19)
(0.800253 0.3019 -6.73569e-20)
(0.774911 0.284326 1.64115e-19)
(0.745535 0.265993 0)
(0.689596 0.241624 -2.49854e-19)
(0.565493 0.197052 3.69619e-19)
(0.353312 0.122771 7.08027e-19)
(0.106411 0.0371927 -8.31308e-19)
(0.472138 0.196009 -7.02316e-19)
(1.07047 0.419941 3.55001e-19)
(1.28433 0.525799 2.78335e-19)
(1.30983 0.537453 -2.59771e-19)
(1.27151 0.541296 1.12112e-20)
(1.21784 0.530288 7.98529e-20)
(1.15915 0.517532 1.99236e-21)
(1.09586 0.500469 -1.4717e-20)
(1.02838 0.477907 -4.77964e-20)
(0.957836 0.448257 8.44032e-20)
(0.892498 0.413117 1.18359e-19)
(0.839772 0.379415 2.69418e-19)
(0.799986 0.351541 0)
(0.768978 0.328487 5.53588e-21)
(0.748247 0.310386 -4.57254e-19)
(0.72547 0.295466 1.04975e-19)
(0.676214 0.270525 5.37225e-19)
(0.556049 0.220913 -1.57683e-19)
(0.34397 0.137362 3.35708e-19)
(0.103302 0.0404545 -2.79674e-20)
(0.462608 0.214932 6.23265e-21)
(1.05818 0.463945 3.28089e-19)
(1.27479 0.581074 2.10989e-19)
(1.30095 0.593172 -4.61721e-19)
(1.26118 0.595717 2.97123e-19)
(1.20693 0.582049 -9.7379e-20)
(1.14702 0.566869 -5.61196e-21)
(1.08217 0.546912 2.78564e-20)
(1.01265 0.521312 8.23045e-20)
(0.939347 0.488396 -1.10478e-19)
(0.871078 0.450315 0)
(0.819051 0.414414 -1.06865e-19)
(0.783187 0.385944 1.2269e-19)
(0.75733 0.363295 1.66337e-19)
(0.730835 0.34381 -9.53446e-20)
(0.702834 0.321783 -2.41709e-19)
(0.65217 0.294658 -7.35283e-20)
(0.537502 0.239361 -1.21049e-21)
(0.332153 0.147613 0)
(0.0981679 0.0432222 0)
(0.453729 0.230344 -3.46254e-19)
(1.04434 0.504471 0)
(1.26333 0.632891 2.41252e-19)
(1.2904 0.646042 -1.10701e-19)
(1.24951 0.647354 -3.09348e-19)
(1.19473 0.631123 8.52274e-20)
(1.13372 0.613832 -1.19732e-20)
(1.0676 0.591381 -1.00004e-20)
(0.996405 0.563083 4.94174e-20)
(0.921266 0.527023 -4.68634e-20)
(0.851092 0.484623 6.63728e-20)
(0.796461 0.444971 3.33473e-19)
(0.754753 0.412254 1.34438e-20)
(0.722179 0.384879 -1.69541e-19)
(0.702464 0.361696 3.28953e-19)
(0.682413 0.346018 4.48091e-21)
(0.63775 0.31523 7.86671e-20)
(0.523121 0.257373 -3.82603e-19)
(0.319025 0.155695 3.87607e-19)
(0.0921278 0.04494 -4.63253e-19)
(0.447218 0.249665 2.72931e-23)
(1.03223 0.544007 0)
(1.25109 0.682085 0)
(1.2784 0.696233 1.03753e-19)
(1.23651 0.696166 1.20735e-19)
(1.18143 0.677533 -7.18233e-20)
(1.11953 0.658352 5.04765e-20)
(1.05229 0.633736 0)
(0.979399 0.603048 -8.26982e-20)
(0.901961 0.564365 1.6178e-19)
(0.829356 0.519677 2.04404e-19)
(0.772717 0.477519 -1.26082e-19)
(0.734092 0.441918 -1.58806e-19)
(0.709807 0.414105 3.75925e-19)
(0.68541 0.392112 -1.16332e-19)
(0.658651 0.366045 -1.41488e-19)
(0.610684 0.334475 -8.67066e-20)
(0.501019 0.269397 -4.15229e-19)
(0.304364 0.161564 5.83593e-20)
(0.0853908 0.0455803 5.03636e-19)
(0.44349 0.268556 -1.38251e-19)
(1.02032 0.580621 -2.18709e-19)
(1.2381 0.727769 2.36771e-20)
(1.26583 0.743584 7.76823e-23)
(1.22327 0.742477 4.06406e-20)
(1.16782 0.721531 -1.89765e-19)
(1.105 0.700555 0)
(1.03669 0.673948 1.03358e-20)
(0.962414 0.641246 -8.15e-21)
(0.882937 0.60013 2.53712e-19)
(0.807529 0.551735 -5.17738e-20)
(0.749124 0.504862 5.73379e-20)
(0.708332 0.466811 0)
(0.674079 0.434603 -2.05429e-19)
(0.654545 0.406796 2.568e-19)
(0.636328 0.385788 0)
(0.593893 0.348522 -1.89973e-19)
(0.4826 0.281365 5.55467e-19)
(0.288535 0.165469 6.61244e-20)
(0.0782355 0.0451722 -6.24227e-19)
(0.441511 0.285549 -3.06558e-19)
(1.01017 0.615985 3.93312e-19)
(1.22509 0.770891 0)
(1.25268 0.7881 2.57722e-19)
(1.20948 0.786043 0)
(1.15383 0.763166 1.7892e-19)
(1.09026 0.740551 0)
(1.02105 0.712136 0)
(0.94525 0.677736 -2.97025e-20)
(0.863595 0.634621 -2.48195e-19)
(0.786174 0.583999 -3.80639e-19)
(0.726767 0.535211 7.31451e-20)
(0.683733 0.492176 2.74617e-19)
(0.659987 0.458156 2.3167e-19)
(0.636271 0.430287 -8.24121e-19)
(0.610722 0.40034 -3.41399e-19)
(0.564835 0.363998 1.98391e-19)
(0.457425 0.287968 0)
(0.271273 0.167135 5.72724e-19)
(0.0704424 0.0437716 -6.77552e-19)
(0.44002 0.301262 3.37859e-19)
(0.99976 0.648391 -4.32103e-19)
(1.21196 0.810713 0)
(1.2395 0.829759 -1.02325e-20)
(1.19586 0.827114 -1.06129e-19)
(1.14 0.80253 0)
(1.07579 0.77845 -1.61408e-20)
(1.00564 0.748388 1.82228e-20)
(0.928478 0.712416 -3.40974e-20)
(0.844872 0.667575 2.33479e-20)
(0.764285 0.614664 0)
(0.701391 0.561544 2.91279e-19)
(0.658312 0.515592 3.88078e-21)
(0.622603 0.475869 1.25921e-19)
(0.604374 0.441758 1.52011e-19)
(0.587371 0.417069 0)
(0.545869 0.370061 -3.35518e-19)
(0.437088 0.2939 6.57668e-19)
(0.253479 0.166588 -7.00091e-19)
(0.0628245 0.0413684 1.47139e-18)
(0.438751 0.316198 0)
(0.990616 0.68006 0)
(1.19921 0.848334 -2.37775e-19)
(1.2262 0.868734 0)
(1.18208 0.865471 0)
(1.12619 0.839562 2.54527e-19)
(1.06153 0.814294 -2.00625e-20)
(0.990726 0.782832 1.6939e-20)
(0.91244 0.745719 -7.95887e-22)
(0.827246 0.700048 0)
(0.744582 0.645656 -6.1488e-20)
(0.678829 0.589679 -2.4182e-19)
(0.631166 0.539837 -3.04786e-19)
(0.606118 0.497942 -1.27075e-19)
(0.583539 0.463879 1.67516e-19)
(0.559175 0.4239 -3.98083e-19)
(0.514842 0.382291 7.26468e-19)
(0.409524 0.295112 6.83996e-21)
(0.234874 0.163871 -6.77503e-19)
(0.0552606 0.0383267 -1.00544e-19)
(0.437349 0.330776 0)
(0.981247 0.709264 -3.36729e-19)
(1.18659 0.883119 2.65151e-19)
(1.21316 0.905105 0)
(1.1687 0.901409 0)
(1.1128 0.87437 -5.61968e-19)
(1.04783 0.848102 0)
(0.976515 0.815478 0)
(0.897252 0.777335 -5.26748e-20)
(0.81026 0.729981 4.77014e-20)
(0.724246 0.672667 -4.85715e-19)
(0.65451 0.615025 0)
(0.605622 0.56346 -3.31585e-19)
(0.565714 0.514167 1.15495e-20)
(0.546473 0.468977 -5.35764e-19)
(0.533045 0.435869 2.15862e-19)
(0.494451 0.378771 3.72214e-21)
(0.390116 0.293204 -7.76358e-19)
(0.217977 0.159578 3.68316e-19)
(0.0496036 0.0352617 1.07571e-19)
(0.436032 0.344887 0)
(0.973087 0.737907 -3.96409e-19)
(1.17449 0.916195 2.82232e-19)
(1.20029 0.939191 5.94703e-19)
(1.15547 0.934861 1.21498e-19)
(1.09967 0.906883 -8.49591e-20)
(1.03454 0.879873 5.32796e-20)
(0.962828 0.846354 -1.12271e-19)
(0.882524 0.80741 5.6347e-20)
(0.792898 0.759831 2.82712e-19)
(0.70265 0.704116 4.02836e-19)
(0.62903 0.645588 7.81839e-20)
(0.575278 0.586152 4.81806e-19)
(0.546831 0.534439 3.14322e-19)
(0.523399 0.488981 3.87053e-19)
(0.500653 0.435188 -2.42251e-19)
(0.460778 0.383965 -2.86868e-19)
(0.361688 0.287214 3.37723e-19)
(0.199469 0.150264 -1.99466e-19)
(0.045511 0.0341379 3.51592e-19)
(0.434628 0.358523 5.21451e-19)
(0.9647 0.764046 6.29675e-19)
(1.16261 0.946757 1.54894e-19)
(1.18786 0.971014 1.60668e-20)
(1.14279 0.966168 -4.21004e-19)
(1.08709 0.937323 1.62742e-19)
(1.02184 0.909646 -6.07528e-20)
(0.949802 0.875352 -2.13218e-20)
(0.868495 0.835882 -4.34249e-20)
(0.778054 0.787742 -3.17347e-19)
(0.68856 0.729457 2.36432e-20)
(0.611706 0.667644 0)
(0.552407 0.61116 0)
(0.502921 0.552629 -1.59497e-19)
(0.47939 0.491626 -6.37679e-19)
(0.466684 0.443061 5.25867e-19)
(0.437682 0.361932 3.2179e-19)
(0.352984 0.266374 0)
(0.203289 0.129183 6.36697e-19)
(0.0402239 0.0151575 -3.80862e-19)
(0.433383 0.371394 -2.78617e-19)
(0.957336 0.789579 2.40769e-19)
(1.15128 0.975848 -3.45211e-19)
(1.17577 1.00087 -3.72896e-19)
(1.13044 0.995323 -1.65666e-19)
(1.07488 0.965675 3.92884e-20)
(1.00951 0.937442 0)
(0.93716 0.902607 1.60649e-19)
(0.855319 0.862783 9.14137e-21)
(0.762987 0.814426 0)
(0.666298 0.758263 0)
(0.582442 0.697706 5.52085e-20)
(0.519341 0.633434 8.54184e-20)
(0.481948 0.572764 -1.72199e-19)
(0.451016 0.515202 4.61248e-19)
(0.424543 0.434096 -5.79476e-19)
(0.391622 0.355437 -6.91739e-19)
(0.331525 0.242579 6.13804e-19)
(0.229894 0.14534 -2.29639e-19)
(0.123993 0.0938473 1.3159e-19)
(0.431875 0.383483 3.21153e-19)
(0.949645 0.812606 0)
(1.14018 1.00259 0)
(1.16416 1.02868 -1.25748e-19)
(1.11868 1.02262 1.01782e-19)
(1.06326 0.992224 -2.06154e-20)
(0.997855 0.963486 -2.31343e-19)
(0.925408 0.928209 -2.41612e-19)
(0.842865 0.888103 2.61508e-20)
(0.748903 0.840204 -2.59884e-20)
(0.652832 0.783173 6.36865e-20)
(0.568643 0.721222 -4.51123e-19)
(0.499853 0.662713 -5.01292e-19)
(0.435027 0.597337 -9.18306e-20)
(0.394687 0.518521 0)
(0.372216 0.446959 -1.28075e-20)
(0.349017 0.306278 3.81674e-19)
(0.307359 0.146508 -6.43018e-19)
(0.269281 -0.0150722 4.76178e-19)
(0.0818682 -0.0852018 3.79522e-19)
(0.430488 0.394916 -6.99841e-19)
(0.942768 0.835159 -3.01984e-19)
(1.12959 1.02817 6.3304e-21)
(1.15284 1.05494 1.59488e-19)
(1.1072 1.04832 0)
(1.05194 1.01732 4.80497e-19)
(0.986515 0.988249 2.88731e-19)
(0.913864 0.952674 -4.64802e-20)
(0.830791 0.912705 9.79479e-22)
(0.736013 0.864828 -2.42963e-20)
(0.635787 0.809258 2.25667e-20)
(0.544511 0.751877 3.99041e-19)
(0.463902 0.689056 4.89996e-19)
(0.413142 0.620879 8.84912e-20)
(0.364372 0.555382 4.91877e-19)
(0.306866 0.442333 0)
(0.210848 0.305466 0)
(0.050845 0.290809 4.77049e-19)
(-0.064451 0.630483 -3.3497e-20)
(-1.29499e-05 1.4963 -6.14673e-19)
(0.428667 0.405747 3.8086e-19)
(0.935585 0.855535 9.06813e-19)
(1.11913 1.05181 -1.36578e-18)
(1.14188 1.0797 8.2482e-19)
(1.09613 1.07286 -9.70511e-20)
(1.041 1.04149 6.25259e-19)
(0.975545 1.01226 0)
(0.902794 0.976761 2.47583e-19)
(0.819325 0.937177 0)
(0.722738 0.890576 2.15336e-19)
(0.620116 0.837184 -3.65885e-20)
(0.524612 0.778851 4.10248e-20)
(0.448907 0.721691 5.42433e-19)
(0.361272 0.662196 -2.01762e-19)
(0.277333 0.575658 -2.58068e-19)
(0.209265 0.507132 0)
(0.109973 0.59335 0)
(0.0410241 1.24041 0)
(0.0799907 2.42218 -2.682e-19)
(0.111309 2.89073 -1.66527e-19)
(0.426936 0.416171 0)
(0.929165 0.875529 0)
(1.10922 1.07454 4.88628e-19)
(1.13127 1.10316 -6.87687e-19)
(1.08539 1.09606 4.73472e-19)
(1.03044 1.06449 -5.73228e-19)
(0.965046 1.03535 -3.34471e-20)
(0.8923 1.00002 2.60421e-20)
(0.808322 0.960975 3.6505e-21)
(0.711087 0.91528 -2.44328e-19)
(0.607211 0.862233 5.4727e-20)
(0.51084 0.811661 3.73478e-19)
(0.411088 0.759647 -5.34037e-19)
(0.34094 0.690644 -6.29363e-19)
(0.275188 0.640795 2.20572e-19)
(0.209941 0.757995 0)
(0.147828 1.48373 3.19122e-19)
(0.14651 2.66543 3.56824e-19)
(0.151569 3.07851 -3.99353e-19)
(0.142346 3.21814 4.40883e-19)
(0.424839 0.425728 0)
(0.922448 0.893366 7.3616e-19)
(1.09943 1.09539 -1.26669e-19)
(1.12106 1.12516 8.64697e-19)
(1.07509 1.1181 -4.96982e-19)
(1.02033 1.08653 0)
(0.954964 1.05755 0)
(0.882064 1.02262 0)
(0.797838 0.98467 -9.36009e-20)
(0.699521 0.940734 4.96531e-22)
(0.592002 0.89318 0)
(0.485199 0.842272 -3.63786e-19)
(0.40597 0.792497 0)
(0.295591 0.748629 4.47403e-19)
(0.219246 0.826538 -2.90692e-19)
(0.173799 1.43788 -2.44684e-19)
(0.182594 2.65608 -6.03059e-19)
(0.201419 3.12522 -3.0001e-19)
(0.191081 3.27268 -3.41014e-19)
(0.175802 3.31404 2.96366e-19)
(0.422933 0.434668 -2.48536e-19)
(0.916455 0.91093 1.49503e-20)
(1.09025 1.11554 -1.36441e-19)
(1.11127 1.14607 -6.92233e-19)
(1.06518 1.13896 0)
(1.01059 1.10747 0)
(0.945287 1.0789 0)
(0.872594 1.04461 -1.71225e-20)
(0.788239 1.00741 1.08382e-19)
(0.689207 0.965295 0)
(0.581452 0.917796 0)
(0.48438 0.87479 0)
(0.37066 0.838387 0)
(0.309778 0.832623 2.91936e-19)
(0.287578 1.1812 7.65741e-19)
(0.280171 2.32446 2.39805e-19)
(0.290818 3.07943 4.33617e-19)
(0.282381 3.29275 -2.72943e-19)
(0.231258 3.36181 1.00582e-19)
(0.196701 3.37456 0)
(0.420681 0.443078 2.51828e-19)
(0.909926 0.926826 -1.58711e-18)
(1.0809 1.13442 -4.50092e-19)
(1.1016 1.16616 -1.10048e-19)
(1.05544 1.15927 1.26863e-19)
(1.00109 1.12801 -8.97203e-19)
(0.935895 1.09981 6.10194e-20)
(0.863145 1.06608 4.29892e-19)
(0.778596 1.03041 0)
(0.679243 0.990657 -1.37834e-20)
(0.57055 0.948889 1.25385e-20)
(0.457006 0.908195 0)
(0.377712 0.877285 0)
(0.329511 1.00188 -3.61895e-19)
(0.302389 1.82326 -3.60996e-21)
(0.29702 2.92363 -1.24928e-19)
(0.314917 3.29686 2.00708e-19)
(0.288234 3.40121 6.49855e-20)
(0.219559 3.42773 9.91112e-20)
(0.193079 3.4363 -5.15978e-20)
(0.418354 0.451496 4.85094e-19)
(0.903539 0.944123 1.51775e-18)
(1.0714 1.15446 5.53565e-19)
(1.09157 1.18688 0)
(1.04538 1.17994 0)
(0.991244 1.14876 6.87337e-19)
(0.92619 1.121 -4.27568e-19)
(0.853828 1.0881 -3.94968e-19)
(0.76977 1.05346 -1.59581e-20)
(0.670643 1.01557 7.78603e-21)
(0.560426 0.976406 -2.43352e-19)
(0.458782 0.940553 0)
(0.381865 0.957516 0)
(0.352127 1.33815 -1.97706e-19)
(0.362997 2.42748 -2.59747e-19)
(0.40635 3.19807 0)
(0.433706 3.38651 7.41188e-20)
(0.363102 3.45315 2.1442e-19)
(0.286745 3.49822 -4.66908e-19)
(0.261158 3.52426 2.72514e-19)
(0.415109 0.460257 -9.19016e-19)
(0.8957 0.960881 -7.21987e-19)
(1.06066 1.17457 0)
(1.08068 1.2082 0)
(1.03457 1.20144 0)
(0.980834 1.17034 0)
(0.91618 1.14283 4.56873e-19)
(0.844223 1.1103 -5.062e-19)
(0.760304 1.07682 0)
(0.660819 1.04195 -1.14038e-21)
(0.553288 1.00644 3.94351e-19)
(0.445371 0.980065 2.1364e-20)
(0.391601 1.06224 3.7885e-20)
(0.409501 1.70858 2.87907e-19)
(0.437646 2.87015 -7.79452e-20)
(0.473065 3.33123 0)
(0.453867 3.46506 -7.25045e-20)
(0.362471 3.55422 1.02013e-19)
(0.275777 3.62591 3.51361e-19)
(0.198932 3.60676 -3.08191e-19)
(0.41179 0.469255 4.35571e-19)
(0.887795 0.980088 -7.09337e-19)
(1.04942 1.19678 0)
(1.06902 1.23079 -1.76874e-19)
(1.02302 1.22373 6.72157e-19)
(0.969691 1.19244 0)
(0.905387 1.16509 0)
(0.833988 1.1332 9.45772e-19)
(0.751037 1.10116 1.69855e-20)
(0.653902 1.06785 -1.11798e-19)
(0.544059 1.03729 -1.62344e-19)
(0.457162 1.02987 1.34077e-19)
(0.42721 1.23023 0)
(0.456625 2.12056 -1.33007e-19)
(0.503436 3.13261 1.15025e-19)
(0.563233 3.43999 -4.43909e-20)
(0.558335 3.54618 0)
(0.486624 3.64578 -1.99122e-19)