/*--------------------------------*- C++ -*----------------------------------*\
| =========                 |                                                 |
| \\      /  F ield         | OpenFOAM: The Open Source CFD Toolbox           |
|  \\    /   O peration     | Version:  v2012                                 |
|   \\  /    A nd           | Website:  www.openfoam.com                      |
|    \\/     M anipulation  |                                                 |
\*---------------------------------------------------------------------------*/
FoamFile
{
    version     2.0;
    format      ascii;
    class       volScalarField;
    location    "14";
    object      p;
}
// * * * * * * * * * * * * * * * * * * * * * * * * * * * * * * * * * * * * * //

dimensions      [0 2 -2 0 0 0 0];


internalField   nonuniform List<scalar> 
2200
(
0.400315
0.378854
0.363017
0.347422
0.332941
0.320655
0.310518
0.302562
0.296963
0.293984
0.294253
0.297688
0.303616
0.311818
0.322128
0.334541
0.349106
0.364751
0.380618
0.402095
0.33263
0.329385
0.326553
0.322555
0.317268
0.310969
0.304533
0.298806
0.294459
0.292084
0.292324
0.295199
0.299907
0.305896
0.312518
0.318938
0.324314
0.328377
0.331251
0.334509
0.292375
0.292706
0.294984
0.296606
0.297315
0.296666
0.294834
0.2923
0.28981
0.288244
0.288547
0.29065
0.293533
0.296348
0.298378
0.299169
0.29856
0.297009
0.294783
0.294472
0.269602
0.271128
0.274085
0.276918
0.279648
0.281959
0.283441
0.283908
0.283597
0.283108
0.283493
0.28457
0.285313
0.285172
0.283928
0.281787
0.279182
0.276434
0.273531
0.27202
0.255457
0.257405
0.260372
0.263362
0.26642
0.269457
0.272238
0.274425
0.275906
0.276693
0.277097
0.276998
0.276072
0.274271
0.271772
0.268932
0.266013
0.263122
0.260219
0.25828
0.248696
0.250157
0.252508
0.255423
0.258384
0.261186
0.263679
0.265988
0.268057
0.269557
0.270022
0.269384
0.268015
0.266191
0.264011
0.261434
0.258625
0.255808
0.253518
0.252061
0.247015
0.247829
0.249395
0.251997
0.254741
0.257223
0.259302
0.261237
0.262991
0.264379
0.26497
0.264637
0.2637
0.26236
0.260673
0.258487
0.255939
0.25346
0.251947
0.251143
0.247724
0.248074
0.249005
0.250898
0.253039
0.255121
0.257001
0.258736
0.260219
0.261421
0.262139
0.26216
0.261596
0.260622
0.259314
0.257624
0.255744
0.254021
0.25316
0.252816
0.24805
0.248149
0.248576
0.249538
0.250735
0.252129
0.253694
0.255356
0.256906
0.258271
0.259193
0.259405
0.259024
0.258273
0.257393
0.256449
0.255548
0.254785
0.254446
0.254349
0.246213
0.246249
0.246375
0.246741
0.247275
0.248026
0.249085
0.250477
0.252027
0.253606
0.254855
0.255449
0.255449
0.255081
0.254757
0.254497
0.254294
0.25415
0.254115
0.254089
0.243037
0.242995
0.243105
0.243379
0.243826
0.244391
0.245192
0.246305
0.247688
0.249312
0.250823
0.251909
0.252502
0.252761
0.252838
0.252886
0.252874
0.252862
0.252878
0.252888
0.239614
0.239596
0.239763
0.240116
0.240648
0.241368
0.242324
0.24349
0.244947
0.246712
0.248475
0.24989
0.250923
0.251491
0.251807
0.251958
0.251975
0.251953
0.251952
0.251956
0.23602
0.236043
0.236184
0.236524
0.237078
0.237856
0.238934
0.240326
0.242102
0.244262
0.246488
0.24825
0.249531
0.250351
0.250879
0.251178
0.251323
0.251392
0.251428
0.25143
0.231725
0.231728
0.231868
0.232171
0.232697
0.233474
0.234624
0.236208
0.238331
0.24102
0.243909
0.246242
0.247887
0.249061
0.249854
0.250379
0.250718
0.250927
0.251031
0.25103
0.226677
0.226665
0.226865
0.22719
0.227738
0.228612
0.229909
0.231757
0.2343
0.237611
0.241269
0.244332
0.246507
0.248094
0.249185
0.249916
0.250393
0.250685
0.250826
0.250828
0.220776
0.220764
0.220996
0.221479
0.222226
0.223335
0.22495
0.227235
0.230374
0.234484
0.239052
0.242939
0.245772
0.247805
0.249171
0.250093
0.25069
0.251049
0.251217
0.251215
0.214173
0.214169
0.214445
0.21502
0.215953
0.217361
0.219414
0.222312
0.226271
0.231438
0.237169
0.242043
0.245617
0.248123
0.249825
0.250966
0.251696
0.252125
0.252322
0.252317
0.206384
0.206388
0.206767
0.207519
0.208713
0.21049
0.213071
0.216721
0.221719
0.228228
0.235409
0.241481
0.245915
0.249025
0.251158
0.252591
0.253524
0.254086
0.254344
0.254336
0.19728
0.197274
0.197728
0.198637
0.200137
0.202415
0.20572
0.210382
0.216718
0.224917
0.233883
0.241427
0.246921
0.250789
0.253446
0.255228
0.256377
0.257054
0.257358
0.257342
0.186148
0.186174
0.186817
0.188052
0.190016
0.192948
0.197199
0.203174
0.211241
0.221563
0.23271
0.242027
0.248792
0.253547
0.256808
0.258993
0.260416
0.261274
0.261666
0.261652
0.172706
0.172707
0.173502
0.175086
0.177676
0.181595
0.187175
0.194926
0.205232
0.218198
0.231989
0.243422
0.251707
0.257548
0.261572
0.264285
0.266042
0.267073
0.267531
0.267494
0.155656
0.155763
0.156955
0.159183
0.162709
0.16794
0.175358
0.185514
0.198703
0.214927
0.231862
0.245776
0.255842
0.262955
0.267866
0.271172
0.273337
0.274636
0.275219
0.275186
0.134396
0.134452
0.136047
0.139194
0.144137
0.151425
0.161467
0.174802
0.191638
0.211786
0.232385
0.249151
0.261277
0.269898
0.275933
0.280072
0.282787
0.284402
0.285105
0.28502
0.10603
0.106529
0.109111
0.113866
0.121192
0.131494
0.145269
0.162856
0.184219
0.20901
0.233811
0.253799
0.268267
0.278647
0.285988
0.29109
0.294516
0.296567
0.297494
0.297388
0.0684441
0.0691982
0.073505
0.0814607
0.0928494
0.107858
0.126848
0.149847
0.176663
0.206799
0.236237
0.259721
0.276736
0.289068
0.29799
0.304366
0.308797
0.311589
0.312852
0.31259
0.0184558
0.0191269
0.0272351
0.0406597
0.0587139
0.0806539
0.106451
0.136073
0.169275
0.205358
0.239767
0.266954
0.286736
0.301256
0.311971
0.31989
0.325574
0.329129
0.33043
0.330046
-0.0505312
-0.0463516
-0.0288707
-0.00587188
0.0210541
0.0512403
0.0848802
0.122041
0.162338
0.205065
0.245159
0.276796
0.30014
0.317694
0.331047
0.341297
0.349185
0.354859
0.356924
0.356846
-0.132584
-0.117699
-0.0874168
-0.0538123
-0.0172804
0.0213783
0.0633068
0.108286
0.15588
0.20566
0.25208
0.288895
0.316485
0.337763
0.354641
0.368193
0.379052
0.387141
0.392847
0.393638
-0.197794
-0.180503
-0.141776
-0.100126
-0.0549716
-0.00763483
0.0425885
0.0951122
0.149814
0.206395
0.258741
0.300231
0.331432
0.355572
0.374661
0.390092
0.402281
0.411546
0.416588
0.417251
-0.246421
-0.230984
-0.187682
-0.141138
-0.0892438
-0.0344808
0.022985
0.0824342
0.143913
0.206905
0.264682
0.310078
0.343824
0.369599
0.389574
0.405363
0.417796
0.426902
0.43194
0.432728
-0.286218
-0.27105
-0.225631
-0.176119
-0.118957
-0.0585559
0.00480346
0.0703748
0.137972
0.206649
0.26903
0.317371
0.352754
0.37935
0.399659
0.415369
0.427869
0.437014
0.442251
0.44301
-0.320374
-0.304885
-0.257456
-0.205668
-0.144565
-0.0800241
-0.0119616
0.0588178
0.131654
0.205294
0.271747
0.322693
0.359429
0.386659
0.407341
0.423153
0.435704
0.44471
0.450175
0.450712
-0.350438
-0.334985
-0.285215
-0.231027
-0.166897
-0.0993699
-0.0275447
0.0475947
0.124958
0.203186
0.273565
0.326987
0.365153
0.393186
0.414284
0.430237
0.442698
0.45183
0.45687
0.457508
-0.377444
-0.36225
-0.310409
-0.253702
-0.186966
-0.117064
-0.0421289
0.0366847
0.118046
0.200549
0.274713
0.330815
0.37062
0.399487
0.421006
0.4372
0.449556
0.458661
0.463589
0.464182
-0.402189
-0.387063
-0.334136
-0.275007
-0.205819
-0.133625
-0.0559008
0.0260936
0.111057
0.197667
0.275828
0.334815
0.37621
0.405981
0.427838
0.444048
0.456383
0.465324
0.47028
0.470907
-0.425522
-0.4099
-0.356834
-0.295699
-0.224294
-0.149686
-0.0692477
0.015644
0.103937
0.194427
0.276375
0.338053
0.381265
0.412025
0.434493
0.451111
0.463524
0.472397
0.477308
0.477854
-0.447437
-0.431642
-0.37835
-0.315828
-0.242689
-0.165746
-0.0826925
0.00490356
0.0962505
0.190287
0.275899
0.340935
0.386472
0.418678
0.441703
0.458488
0.470885
0.479615
0.48451
0.485106
-0.468125
-0.45245
-0.398654
-0.335172
-0.260815
-0.181911
-0.0965423
-0.00646383
0.08777
0.185324
0.275104
0.343539
0.391338
0.424929
0.448909
0.466165
0.478814
0.487558
0.492317
0.492807
-0.488113
-0.472236
-0.417948
-0.353715
-0.278432
-0.198008
-0.110726
-0.0184062
0.0785959
0.179548
0.273118
0.345026
0.396038
0.431842
0.456916
0.474693
0.48733
0.495743
0.500455
0.500938
-0.507804
-0.491265
-0.436565
-0.371654
-0.295477
-0.213828
-0.124987
-0.03073
0.0687175
0.17267
0.269863
0.346
0.400455
0.438851
0.46536
0.483633
0.496361
0.504951
0.5093
0.509574
-0.527189
-0.509834
-0.454799
-0.389182
-0.312052
-0.229326
-0.13919
-0.0433177
0.0582129
0.164932
0.266042
0.346083
0.403956
0.445404
0.474161
0.493573
0.506414
0.514171
0.518238
0.518379
-0.546145
-0.528145
-0.472747
-0.406346
-0.328286
-0.24458
-0.153328
-0.0560748
0.0472713
0.156433
0.2608
0.344744
0.407061
0.452208
0.483895
0.504665
0.517366
0.524571
0.52779
0.527545
-0.564528
-0.54612
-0.49032
-0.42311
-0.344226
-0.259652
-0.167416
-0.068983
0.0358953
0.147054
0.254203
0.342254
0.408593
0.458215
0.493862
0.517388
0.530579
0.535675
0.536541
0.536034
-0.582268
-0.563584
-0.507354
-0.439396
-0.359837
-0.274531
-0.18146
-0.0820457
0.0240553
0.136897
0.246626
0.338157
0.408805
0.463096
0.503601
0.531558
0.546794
0.549992
0.546314
0.543351
-0.599305
-0.580386
-0.523732
-0.455128
-0.375031
-0.289136
-0.195389
-0.0951753
0.0119222
0.126146
0.237893
0.332243
0.406792
0.466223
0.512861
0.547187
0.568016
0.569598
0.561138
0.565406
-0.615606
-0.596466
-0.539392
-0.470242
-0.389716
-0.303358
-0.209083
-0.108255
-0.000345206
0.114958
0.228158
0.324793
0.402994
0.466779
0.519113
0.561677
0.593381
0.593879
0.551226
0.498315
-0.631119
-0.611865
-0.554389
-0.484808
-0.403966
-0.317289
-0.222678
-0.121469
-0.013032
0.102965
0.217072
0.315133
0.395665
0.463674
0.521428
0.573382
0.620517
0.653597
0.683211
0.735041
-0.645801
-0.626655
-0.568831
-0.498966
-0.417953
-0.331146
-0.236428
-0.135112
-0.0265731
0.0896123
0.204185
0.302669
0.384486
0.454722
0.514054
0.564045
0.601396
0.626055
0.61438
0.618712
-0.659665
-0.640786
-0.582696
-0.512679
-0.431607
-0.344832
-0.250205
-0.149055
-0.0407725
0.0751961
0.189622
0.287645
0.368573
0.436862
0.493156
0.534447
0.543075
0.512617
0.46387
0.458441
-0.672789
-0.65423
-0.595983
-0.52596
-0.444939
-0.358359
-0.264013
-0.1633
-0.0555875
0.0595547
0.172909
0.269174
0.346336
0.4085
0.457513
0.472831
0.44292
0.376981
0.307107
0.300739
-0.68522
-0.66702
-0.608722
-0.538826
-0.457979
-0.371747
-0.277845
-0.177773
-0.0709902
0.0427409
0.154203
0.248132
0.319447
0.368983
0.393315
0.380414
0.33295
0.230749
0.141751
0.127291
-0.697361
-0.679577
-0.621291
-0.55163
-0.471067
-0.385286
-0.291952
-0.192733
-0.0871549
0.0248143
0.133752
0.224336
0.288948
0.322649
0.312416
0.270192
0.161796
0.0342506
-0.0777779
-0.0997952
-0.710029
-0.692666
-0.634354
-0.564957
-0.484746
-0.399434
-0.306741
-0.208499
-0.104316
0.0054388
0.1109
0.196823
0.254096
0.26665
0.218439
0.122825
-0.047088
-0.209095
-0.342259
-0.367278
-0.723685
-0.706649
-0.64818
-0.579018
-0.499177
-0.414295
-0.322269
-0.22509
-0.122514
-0.0152561
0.0863227
0.167232
0.212886
0.199061
0.121042
-0.0447993
-0.270648
-0.503656
-0.696157
-0.744538
-0.738379
-0.721561
-0.662773
-0.593826
-0.514311
-0.429823
-0.338491
-0.24248
-0.141674
-0.0371431
0.0596444
0.134935
0.168339
0.113887
0.000108346
-0.221691
-0.493016
-0.824032
-1.17765
-1.31765
-0.754135
-0.737439
-0.678162
-0.609469
-0.530172
-0.446045
-0.355446
-0.26065
-0.161782
-0.0603596
0.0312633
0.0996629
0.117419
0.0258821
-0.145757
-0.403281
-0.691531
-1.09939
-1.74974
-2.3546
-0.770948
-0.754259
-0.694364
-0.625992
-0.546717
-0.462923
-0.373043
-0.279484
-0.182668
-0.084547
0.00207479
0.0638846
0.0654346
-0.0612286
-0.295774
-0.598597
-0.865894
-1.1778
-1.84925
-3.58106
-0.788807
-0.772006
-0.711462
-0.643494
-0.564042
-0.480589
-0.391498
-0.299205
-0.20457
-0.11
-0.0285754
0.0237453
0.00669496
-0.137521
-0.417459
-0.740915
-0.959445
-1.05992
-1.11842
-1.57103
-0.807649
-0.790566
-0.729635
-0.662183
-0.582407
-0.499438
-0.41127
-0.320376
-0.228193
-0.137829
-0.0615539
-0.0168769
-0.0608973
-0.196677
-0.489821
-0.787516
-0.967531
-1.01484
-0.977735
-1.03143
-0.827316
-0.809975
-0.749012
-0.681988
-0.601793
-0.519477
-0.432378
-0.343058
-0.253596
-0.168026
-0.0971593
-0.0606279
-0.124625
-0.25384
-0.540527
-0.790742
-0.937593
-0.986994
-1.01509
-1.03777
-0.847453
-0.82988
-0.769608
-0.702707
-0.622096
-0.540651
-0.454762
-0.367082
-0.280586
-0.20006
-0.13382
-0.101274
-0.181736
-0.326256
-0.590589
-0.798677
-0.920124
-0.918941
-0.949057
-0.947637
-0.867971
-0.85025
-0.791106
-0.723978
-0.643091
-0.562788
-0.478024
-0.392165
-0.308751
-0.233548
-0.174055
-0.144442
-0.238372
-0.409247
-0.645237
-0.809977
-0.908968
-0.911995
-0.924433
-0.929954
-0.888435
-0.870784
-0.812684
-0.74537
-0.664516
-0.585572
-0.501862
-0.417927
-0.337499
-0.267397
-0.214809
-0.189146
-0.306955
-0.507988
-0.715957
-0.831871
-0.890261
-0.932173
-0.915485
-0.925473
-0.908578
-0.89115
-0.833787
-0.766359
-0.685931
-0.608655
-0.525644
-0.44391
-0.366321
-0.300472
-0.256441
-0.227622
-0.358627
-0.608394
-0.811965
-0.877493
-0.835021
-0.909008
-0.906552
-0.919625
-0.927616
-0.910613
-0.853616
-0.786194
-0.707349
-0.631166
-0.548593
-0.46989
-0.394141
-0.331338
-0.299563
-0.270481
-0.411237
-0.700642
-0.929244
-0.979875
-0.893613
-0.921965
-0.95537
-0.963181
-0.944778
-0.928266
-0.871738
-0.804626
-0.728247
-0.651418
-0.570604
-0.494885
-0.419992
-0.357593
-0.337849
-0.295923
-0.462444
-0.788739
-1.09355
-1.2668
-1.25983
-1.20322
-1.19527
-1.18317
-0.958882
-0.943154
-0.887623
-0.82096
-0.746177
-0.669461
-0.59152
-0.516966
-0.443936
-0.379841
-0.364049
-0.302325
-0.477668
-0.826326
-1.25401
-1.70905
-1.86255
-1.78325
-1.69793
-1.63196
-0.968892
-0.953985
-0.89966
-0.833503
-0.759801
-0.684422
-0.608817
-0.536439
-0.463904
-0.401162
-0.375733
-0.305659
-0.469286
-0.79852
-1.24299
-1.74586
-1.96624
-1.86627
-1.76553
-1.69598
-0.97296
-0.958969
-0.906253
-0.840823
-0.768181
-0.694822
-0.621639
-0.552931
-0.480908
-0.410564
-0.36888
-0.300564
-0.415005
-0.603911
-0.842107
-1.0666
-1.14015
-1.0888
-0.98445
-0.885284
-0.969676
-0.956625
-0.905646
-0.841287
-0.770251
-0.699459
-0.629736
-0.56515
-0.501048
-0.416933
-0.348867
-0.27191
-0.237073
-0.171174
-0.0641318
0.0213056
0.102103
0.186214
0.235091
0.269171
-0.956529
-0.944873
-0.896442
-0.833679
-0.764686
-0.696854
-0.631702
-0.57078
-0.513737
-0.448743
-0.346862
-0.225798
-0.0383074
0.221218
0.548257
0.837872
1.05216
1.16402
1.1966
1.20997
-0.932234
-0.92189
-0.876667
-0.816337
-0.750191
-0.686705
-0.627808
-0.575355
-0.532349
-0.498844
-0.394221
-0.247713
0.0461414
0.425486
0.838722
1.20738
1.47677
1.60505
1.63508
1.64465
-0.895618
-0.887019
-0.845008
-0.788377
-0.727083
-0.669542
-0.61909
-0.583431
-0.578951
-0.596945
-0.572903
-0.402177
-0.0197824
0.413533
0.859764
1.25553
1.51318
1.6301
1.66145
1.67095
-0.845401
-0.838984
-0.801768
-0.751128
-0.695391
-0.644592
-0.605428
-0.593574
-0.640646
-0.75751
-0.887681
-0.690971
-0.226577
0.261369
0.740458
1.10401
1.31939
1.40422
1.44163
1.45437
-0.783209
-0.778174
-0.746239
-0.702094
-0.652664
-0.609072
-0.579858
-0.584648
-0.674738
-0.871937
-1.18579
-1.03327
-0.280216
0.166815
0.56436
0.824232
1.00716
1.08249
1.1217
1.13549
-0.71184
-0.706779
-0.67768
-0.639216
-0.595923
-0.557352
-0.529571
-0.526503
-0.626825
-0.780285
-1.06736
-0.870001
-0.335741
0.0609139
0.372509
0.573836
0.698126
0.753079
0.790734
0.804814
-0.615328
-0.612389
-0.589584
-0.558981
-0.522343
-0.488127
-0.460805
-0.453385
-0.496477
-0.591862
-0.727996
-0.496877
-0.129407
0.130699
0.329259
0.452846
0.521888
0.560888
0.585887
0.594349
-0.491445
-0.491148
-0.479876
-0.45836
-0.431407
-0.403388
-0.37678
-0.358824
-0.363637
-0.39764
-0.423944
-0.206829
0.0163112
0.185916
0.306325
0.374169
0.417365
0.441326
0.456189
0.459571
-0.373807
-0.37245
-0.365137
-0.352545
-0.334678
-0.313344
-0.289072
-0.264797
-0.24497
-0.232826
-0.187236
-0.0247942
0.102725
0.207738
0.271256
0.308058
0.332816
0.346712
0.35371
0.355356
-0.262016
-0.262167
-0.258919
-0.251734
-0.240836
-0.22592
-0.205748
-0.180482
-0.148424
-0.105579
-0.040021
0.0652903
0.147246
0.205447
0.236819
0.256065
0.269125
0.276281
0.280315
0.282102
-0.167786
-0.168469
-0.167186
-0.1635
-0.157402
-0.147935
-0.132659
-0.110235
-0.0777303
-0.0273485
0.0330905
0.107718
0.159069
0.190389
0.20624
0.216181
0.223034
0.227523
0.230287
0.230753
-0.0948407
-0.0956977
-0.0958714
-0.094379
-0.0907011
-0.0844277
-0.0733568
-0.0555502
-0.0282823
0.0141844
0.065705
0.122576
0.152749
0.170955
0.180109
0.185854
0.18958
0.191722
0.19254
0.191911
-0.0423976
-0.0432122
-0.044431
-0.0446235
-0.0426278
-0.0380505
-0.0295308
-0.0158257
0.00551429
0.0388467
0.0788787
0.119491
0.139719
0.151962
0.158079
0.161432
0.16296
0.163199
0.162615
0.161739
-0.00673073
-0.00738691
-0.0088905
-0.0102749
-0.00984217
-0.00686664
-0.000326171
0.0105888
0.0273669
0.0529989
0.0830282
0.111617
0.126287
0.134982
0.139102
0.140689
0.140614
0.13963
0.138557
0.13779
0.0160686
0.0155719
0.0142604
0.0126001
0.0120585
0.0134164
0.0178533
0.0263931
0.0397722
0.0596412
0.0822632
0.102687
0.113559
0.119757
0.122369
0.122862
0.1221
0.120763
0.119718
0.119087
0.0296169
0.0292522
0.0282873
0.0270117
0.0263066
0.0266196
0.0292405
0.0352579
0.0454677
0.0608083
0.0781187
0.0930701
0.101267
0.105733
0.107406
0.10748
0.106745
0.105652
0.10486
0.104366
0.0375752
0.0372903
0.0366749
0.0359033
0.0355067
0.0356218
0.0372068
0.0410049
0.0481378
0.0594349
0.0725139
0.0835247
0.0896894
0.0929607
0.094182
0.0942302
0.0937356
0.0929733
0.0924345
0.0920713
0.0428459
0.0426236
0.0422226
0.0417071
0.0415052
0.0417181
0.0429381
0.0453951
0.050138
0.0578807
0.0672248
0.0750652
0.0795537
0.0819489
0.0829158
0.0829722
0.0825844
0.0819847
0.0815949
0.0813322
0.0463383
0.0461644
0.0458082
0.0452501
0.0448989
0.0449852
0.0459151
0.0477198
0.0510451
0.0562617
0.0626236
0.0679824
0.0711449
0.0728474
0.0735327
0.0734873
0.0730637
0.0725019
0.0721734
0.0719772
0.0476932
0.0475449
0.0471656
0.0464943
0.04592
0.045707
0.0461643
0.0474387
0.049897
0.0536531
0.0581138
0.06181
0.064021
0.0651634
0.0655452
0.0653782
0.0649302
0.0644082
0.0641225
0.0639688
0.0469119
0.0467856
0.0464263
0.0457639
0.0451421
0.0447544
0.0447837
0.0455038
0.0471983
0.0499774
0.0532842
0.0559609
0.0575255
0.0582627
0.0584268
0.0582153
0.0578151
0.057374
0.0571427
0.0570225
0.0447027
0.0446054
0.0443182
0.0437655
0.043244
0.0428644
0.0427086
0.0430387
0.04406
0.0459767
0.0483673
0.0502984
0.0513909
0.0518666
0.0519213
0.0517277
0.0514061
0.0510562
0.0508797
0.0507886
0.0417335
0.0416655
0.0414515
0.0410097
0.0406021
0.0402801
0.0400959
0.0402484
0.0408162
0.0420364
0.0436293
0.0449315
0.0456493
0.0459468
0.0459445
0.0457769
0.0455208
0.0452454
0.0451108
0.045042
0.0382312
0.0381831
0.0380166
0.0376558
0.0373255
0.0370373
0.0368466
0.0369132
0.0372263
0.0379987
0.0390114
0.0398451
0.040291
0.0404602
0.0404139
0.0402569
0.0400416
0.0398173
0.0397099
0.0396569
0.0342989
0.0342642
0.0341282
0.0338299
0.0335556
0.0332927
0.033093
0.0330927
0.0332507
0.0337595
0.0344108
0.0349442
0.035208
0.0352818
0.0352037
0.0350549
0.0348713
0.0346872
0.034599
0.0345582
0.0300518
0.0300261
0.0299187
0.0296844
0.0294638
0.029238
0.0290454
0.0289979
0.029049
0.0293728
0.0297924
0.030135
0.0302779
0.0302946
0.0302092
0.0300795
0.0299293
0.0297829
0.0297123
0.0296799
0.0256165
0.0255978
0.0255152
0.0253385
0.0251666
0.0249847
0.0248165
0.0247481
0.0247341
0.0249205
0.0251762
0.0253884
0.0254587
0.0254457
0.0253616
0.0252496
0.0251261
0.0250091
0.0249528
0.0249282
0.0210721
0.0210588
0.020998
0.0208702
0.0207405
0.0206013
0.0204661
0.0203997
0.0203566
0.020452
0.020589
0.0207051
0.0207287
0.0206989
0.0206214
0.0205265
0.0204269
0.0203358
0.020292
0.0202739
0.0164689
0.016459
0.0164125
0.0163183
0.0162192
0.0161145
0.0160085
0.0159487
0.0158978
0.0159444
0.0160154
0.0160731
0.0160683
0.0160326
0.0159671
0.015891
0.0158131
0.0157428
0.0157079
0.0156933
0.0118158
0.0118104
0.0117769
0.0117093
0.0116359
0.0115599
0.0114801
0.0114306
0.011384
0.0114019
0.0114352
0.0114603
0.0114464
0.0114143
0.0113613
0.0113031
0.0112455
0.0111944
0.0111696
0.01116
0.00711529
0.00711111
0.0070899
0.00704885
0.0070036
0.00695799
0.00690816
0.00687813
0.00684315
0.00684866
0.00686078
0.00686968
0.00685373
0.00683112
0.00679656
0.00675992
0.006723
0.00668941
0.00667337
0.00666676
0.00238824
0.00238683
0.00237667
0.00235739
0.00233867
0.00232309
0.00230298
0.0022954
0.00228019
0.00228441
0.00228699
0.00229192
0.00228447
0.00227609
0.00226313
0.00224958
0.00223358
0.0022162
0.00220879
0.00220553
-1.65619
-0.717537
-0.44094
-0.136713
0.0714119
0.252803
0.407212
0.564513
0.731613
0.810295
-0.59349
-0.14181
-0.102118
0.102682
0.249731
0.381466
0.497106
0.598529
0.635357
0.588668
-0.160577
0.0783154
0.133754
0.277911
0.381494
0.474944
0.552611
0.610415
0.618062
0.62831
0.102677
0.265359
0.305277
0.420492
0.486447
0.55314
0.604456
0.640411
0.651779
0.674148
0.304253
0.417318
0.446579
0.529497
0.574849
0.62288
0.658516
0.684615
0.696015
0.726522
0.458582
0.536793
0.567322
0.618943
0.656913
0.690448
0.71698
0.738479
0.753913
0.781532
0.587001
0.642452
0.669409
0.701223
0.731299
0.756852
0.778314
0.798321
0.813854
0.839835
0.696315
0.736377
0.758658
0.780892
0.803405
0.824038
0.842267
0.860897
0.875947
0.899372
0.79439
0.8243
0.842057
0.858122
0.875192
0.891858
0.90779
0.925113
0.938835
0.961238
0.884855
0.906138
0.921486
0.935061
0.949067
0.963235
0.976911
0.991792
1.00353
1.02325
0.971669
0.987653
1.00181
1.01397
1.02629
1.03819
1.04949
1.0612
1.06874
1.08553
1.05748
1.07058
1.08459
1.09654
1.10727
1.11703
1.12572
1.13375
1.13734
1.14855
1.14728
1.15829
1.17185
1.18106
1.18847
1.19559
1.20279
1.20949
1.21052
1.2179
1.24566
1.25039
1.25843
1.26293
1.2662
1.27074
1.27677
1.28456
1.28852
1.29841
1.35912
1.3454
1.33798
1.33232
1.32964
1.33102
1.33754
1.34999
1.36471
1.39434
1.47998
1.42442
1.39346
1.37633
1.3682
1.36823
1.37692
1.39628
1.42821
1.49739
)
;

boundaryField
{
    wall-4
    {
        type            zeroGradient;
    }
    pressure-outlet-7
    {
        type            fixedValue;
        value           uniform 0;
    }
    velocity-inlet-6
    {
        type            zeroGradient;
    }
    velocity-inlet-5
    {
        type            zeroGradient;
    }
    frontAndBackPlanes
    {
        type            empty;
    }
}


// ************************************************************************* //
