/*--------------------------------*- C++ -*----------------------------------*\
| =========                 |                                                 |
| \\      /  F ield         | OpenFOAM: The Open Source CFD Toolbox           |
|  \\    /   O peration     | Version:  v2012                                 |
|   \\  /    A nd           | Website:  www.openfoam.com                      |
|    \\/     M anipulation  |                                                 |
\*---------------------------------------------------------------------------*/
FoamFile
{
    version     2.0;
    format      ascii;
    class       surfaceScalarField;
    location    "14";
    object      phi;
}
// * * * * * * * * * * * * * * * * * * * * * * * * * * * * * * * * * * * * * //

dimensions      [0 3 -1 0 0 0 0];
oriented        oriented;


internalField   nonuniform List<scalar> 
4262
(
0.106839
0.47115
0.095262
0.705162
0.0689909
0.858574
0.0468588
1.0209
0.0302426
1.21513
0.0190041
1.44946
0.011806
1.73306
0.00694805
2.07589
0.00329838
2.48889
-0.000218448
2.98581
-0.00375895
2.98583
-0.0073862
2.48887
-0.0121292
2.07578
-0.0192015
1.73294
-0.0303723
1.44939
-0.0469738
1.21512
-0.0690904
1.02088
-0.0953239
0.858537
-0.106877
0.705139
0.471111
0.112542
0.358608
0.13435
0.683355
0.119593
0.873331
0.097513
1.04298
0.0746747
1.23797
0.053063
1.47107
0.0349109
1.75121
0.0208443
2.08996
0.00939858
2.50034
-0.000638129
2.99585
-0.0106067
2.9958
-0.0218165
2.50008
-0.0357713
2.08973
-0.053909
1.75107
-0.075448
1.47093
-0.0981416
1.23781
-0.12007
1.04281
-0.134702
0.873169
-0.112729
0.683166
0.358381
0.0913762
0.267232
0.123363
0.651367
0.118689
0.878005
0.102115
1.05955
0.0842485
1.25584
0.065436
1.48988
0.0462747
1.77038
0.0283792
2.10786
0.012986
2.51573
-0.00104871
3.00988
-0.0151272
3.00988
-0.0304327
2.51539
-0.0482064
2.10751
-0.0670913
1.76996
-0.0855599
1.4894
-0.103154
1.25541
-0.119528
1.05918
-0.123967
0.877608
-0.0916597
0.650859
0.266722
0.0612205
0.206011
0.100426
0.612162
0.101059
0.877371
0.0887777
1.07183
0.0743577
1.27026
0.0610827
1.50316
0.0467748
1.78468
0.0312998
2.12333
0.0153524
2.53168
-0.00171605
3.02695
-0.0185703
3.02673
-0.0342232
2.53104
-0.0491967
2.12248
-0.063066
1.78383
-0.0759991
1.50233
-0.0901091
1.26952
-0.102098
1.07117
-0.101132
0.876642
-0.0615157
0.611243
0.205206
0.0341317
0.17188
0.0742637
0.57203
0.0835664
0.868068
0.076126
1.07927
0.0636384
1.28274
0.0519566
1.51484
0.0405413
1.7961
0.0283223
2.13555
0.0145061
2.5455
-0.0022952
3.04375
-0.0187143
3.04315
-0.0319161
2.54424
-0.0436597
2.13422
-0.0546957
1.79486
-0.0659366
1.51357
-0.0780802
1.28166
-0.0851096
1.0782
-0.0752974
0.86683
-0.0344948
0.570441
0.170711
0.0159655
0.155914
0.0484384
0.539557
0.0620825
0.854424
0.0605013
1.08085
0.0524303
1.29082
0.0424354
1.52483
0.0324765
1.80606
0.0222862
2.14574
0.0108062
2.55698
-0.00303539
3.05759
-0.0166395
3.05676
-0.0276031
2.5552
-0.0370792
2.1437
-0.0463317
1.80412
-0.0557434
1.52298
-0.06317
1.28909
-0.0640625
1.07909
-0.0496516
0.852419
-0.0163951
0.537184
0.154316
0.00539142
0.150523
0.0266587
0.51829
0.0396384
0.841444
0.0421913
1.0783
0.0396732
1.29333
0.0341199
1.53039
0.0271502
1.81303
0.0184938
2.1544
0.00813298
2.56734
-0.00379187
3.06952
-0.0155438
3.06851
-0.0253461
2.56501
-0.0330906
2.15145
-0.0388
1.80983
-0.043394
1.52758
-0.045035
1.29073
-0.0416687
1.07573
-0.0278135
0.838564
-0.00585128
0.515222
0.148465
-0.000213353
0.150736
0.00999667
0.50808
0.0195759
0.831865
0.0243558
1.07352
0.0263687
1.29132
0.025504
1.53125
0.0218535
1.81668
0.0153154
2.16094
0.00616469
2.57649
-0.00477336
3.08045
-0.0152273
3.07896
-0.0233429
2.57312
-0.0284695
2.15657
-0.0309235
1.81228
-0.0307427
1.5274
-0.0277263
1.28771
-0.0220252
1.07003
-0.0114988
0.828037
-0.000320725
0.504044
0.148144
-0.00181534
0.152551
0.00179977
0.504465
0.00816579
0.825499
0.0135016
1.06818
0.0173623
1.28746
0.0186296
1.52998
0.0169125
1.81839
0.0121035
2.16574
0.00423988
2.58435
-0.00592608
3.09062
-0.0155213
3.08856
-0.0223263
2.57993
-0.0259906
2.16024
-0.0264502
1.81274
-0.023547
1.52449
-0.018283
1.28245
-0.0116241
1.06337
-0.00387434
0.820288
0.00104424
0.499125
0.149188
-0.000960842
0.153512
0.000463776
0.50304
0.00499733
0.820966
0.0100818
1.0631
0.0138739
1.28367
0.0149031
1.52896
0.0131187
1.82018
0.0086741
2.17019
0.00155978
2.59147
-0.00773634
3.09992
-0.0165069
3.09733
-0.0221096
2.58553
-0.0248821
2.16301
-0.0246106
1.81247
-0.0217226
1.52161
-0.0161858
1.27691
-0.00937914
1.05656
-0.00299693
0.813905
6.70746e-05
0.496061
0.149255
-0.000385311
0.153897
5.61422e-05
0.502599
0.00370762
0.817314
0.00839049
1.05842
0.0119282
1.28013
0.0126862
1.5282
0.0105085
1.82236
0.00568621
2.17501
-0.00142276
2.59857
-0.0101315
3.10863
-0.0180268
3.10522
-0.0226889
2.59019
-0.0247216
2.16504
-0.0243117
1.81206
-0.0213046
1.5186
-0.0155869
1.27119
-0.00885082
1.04982
-0.00331121
0.808366
-0.000719397
0.493469
0.148536
-0.00079812
0.154696
-0.00119791
0.502999
0.00103081
0.815085
0.00487969
1.05457
0.00798055
1.27703
0.00876554
1.52741
0.00679325
1.82433
0.00222858
2.17958
-0.00454951
2.60535
-0.0125972
3.11667
-0.0194783
3.11211
-0.023619
2.59433
-0.0245639
2.16599
-0.0234904
1.81098
-0.0195742
1.51468
-0.0136724
1.26529
-0.00730677
1.04346
-0.002651
0.80371
-0.000658003
0.491476
0.147878
-0.00128247
0.155978
-0.00262434
0.50434
-0.00219224
0.814653
0.000191302
1.05219
0.00225118
1.27497
0.00275564
1.52691
0.00106548
1.82602
-0.00284706
2.18349
-0.00862875
2.61113
-0.0155402
3.12358
-0.0209996
3.11756
-0.0238384
2.59717
-0.0238334
2.16598
-0.0215893
1.80874
-0.017313
1.51041
-0.0117928
1.25977
-0.00621194
1.03788
-0.00231679
0.799815
-0.000598581
0.489758
0.147279
-0.00137672
0.157355
-0.00337393
0.506338
-0.0038216
0.815101
-0.00310592
1.05147
-0.00243827
1.2743
-0.00293755
1.52741
-0.0050736
1.82816
-0.00883113
2.18725
-0.0139335
2.61624
-0.0196636
3.12931
-0.023643
3.12154
-0.0247415
2.59827
-0.0235919
2.16483
-0.0204195
1.80557
-0.0160917
1.50608
-0.0111461
1.25482
-0.00641598
1.03315
-0.00294511
0.796344
-0.000946637
0.48776
0.146333
-0.00160371
0.158959
-0.00417037
0.508904
-0.00559842
0.816529
-0.00636021
1.05223
-0.00718941
1.27513
-0.0087931
1.52901
-0.0114942
1.83086
-0.0153368
2.19109
-0.0199858
2.62089
-0.0245699
3.1339
-0.0270054
3.12398
-0.0265536
2.59782
-0.024487
2.16277
-0.0208244
1.80191
-0.0164645
1.50172
-0.0118364
1.2502
-0.00749469
1.02881
-0.003974
0.792823
-0.0014059
0.485192
0.144927
-0.00187689
0.160835
-0.00498245
0.51201
-0.00736127
0.818908
-0.00913102
1.054
-0.0113408
1.27734
-0.0143204
1.53199
-0.0181468
1.83468
-0.0226457
2.19559
-0.0273187
2.62556
-0.0310291
3.13761
-0.0319455
3.1249
-0.0300648
2.59594
-0.0266686
2.15937
-0.0222154
1.79745
-0.0173927
1.4969
-0.0126742
1.24548
-0.00839714
1.02453
-0.00471623
0.789142
-0.00168617
0.482162
0.143241
-0.00264788
0.163483
-0.00696527
0.516327
-0.0108414
0.822784
-0.0141444
1.0573
-0.0175477
1.28074
-0.0214849
1.53593
-0.0260055
1.8392
-0.0309501
2.20053
-0.0356291
2.63024
-0.0386514
3.14063
-0.0381953
3.12444
-0.0350461
2.59279
-0.0303745
2.1547
-0.0251786
1.79226
-0.0199452
1.49166
-0.0149728
1.24051
-0.010329
1.01988
-0.00596243
0.784776
-0.00213195
0.478331
0.141109
-0.00319996
0.166683
-0.00839881
0.521526
-0.0131553
0.827541
-0.0177156
1.06186
-0.0228611
1.28589
-0.0286965
1.54176
-0.0349965
1.8455
-0.0412294
2.20676
-0.0464696
2.63548
-0.049032
3.14319
-0.0471532
3.12256
-0.0423673
2.588
-0.0361231
2.14845
-0.0294803
1.78561
-0.02305
1.48523
-0.0171637
1.23462
-0.0118802
1.0146
-0.00696923
0.779865
-0.00251863
0.473881
0.13859
-0.00446065
0.171144
-0.0117329
0.528798
-0.0183873
0.834195
-0.0244915
1.06797
-0.0308569
1.29226
-0.0379223
1.54883
-0.0455129
1.85309
-0.0530034
2.21426
-0.0590042
2.64148
-0.061332
3.14552
-0.0581505
3.11938
-0.0516563
2.58151
-0.0438353
2.14063
-0.0359534
1.77773
-0.0286002
1.47788
-0.0219244
1.22794
-0.0156226
1.0083
-0.00923933
0.773482
-0.0032924
0.467934
0.135298
-0.00541202
0.176556
-0.0139917
0.537378
-0.022197
0.8424
-0.030384
1.07616
-0.0394949
1.30137
-0.0492816
1.55862
-0.0593247
1.86314
-0.0685738
2.2235
-0.0754401
2.64834
-0.0773602
3.14744
-0.0725651
3.11458
-0.0639825
2.57293
-0.0539762
2.13063
-0.043891
1.76765
-0.0344466
1.46843
-0.0258872
1.21938
-0.0181208
1.00053
-0.0107036
0.766064
-0.00387298
0.461103
0.131425
-0.00772018
0.184276
-0.0198652
0.549523
-0.0307857
0.853321
-0.0409076
1.08628
-0.0517299
1.31219
-0.0636526
1.57054
-0.0759942
1.87548
-0.0873269
2.23484
-0.0953515
2.65637
-0.0968649
3.14896
-0.0902167
3.10794
-0.0791572
2.56187
-0.0666427
2.11811
-0.0543594
1.75536
-0.0431392
1.45721
-0.0331594
1.2094
-0.0237826
0.991156
-0.0141381
0.75642
-0.00499179
0.451957
0.126433
-0.00949914
0.193775
-0.0240411
0.564065
-0.0380289
0.867309
-0.0518441
1.10009
-0.0671332
1.32748
-0.0830209
1.58643
-0.0986014
1.89106
-0.112185
2.24842
-0.12102
2.6652
-0.121558
3.14949
-0.112354
3.09873
-0.0982997
2.54781
-0.0827651
2.10258
-0.0674838
1.74008
-0.0532225
1.44295
-0.0401631
1.19634
-0.0281007
0.979093
-0.0164364
0.744756
-0.0058444
0.441365
0.120588
-0.0146636
0.208439
-0.0357673
0.585169
-0.0539312
0.885472
-0.0709224
1.11708
-0.0892709
1.34583
-0.108676
1.60583
-0.127494
1.90988
-0.143031
2.26396
-0.152181
2.67435
-0.151027
3.14834
-0.138591
3.0863
-0.12084
2.53006
-0.101578
2.08331
-0.0828404
1.72134
-0.0657627
1.42588
-0.0506659
1.18125
-0.0364477
0.964875
-0.0216636
0.729972
-0.00755122
0.427252
0.113037
-0.0182994
0.226738
-0.0448978
0.611767
-0.070083
0.910658
-0.094168
1.14117
-0.119447
1.37111
-0.143962
1.63035
-0.166082
1.932
-0.183229
2.2811
-0.191944
2.68307
-0.188049
3.14444
-0.171453
3.0697
-0.149513
2.50812
-0.126328
2.06013
-0.103867
1.69888
-0.0826857
1.40469
-0.0627872
1.16135
-0.0438812
0.945969
-0.0254001
0.711491
-0.0085237
0.410376
0.104514
-0.0335347
0.260273
-0.0716244
0.649857
-0.103377
0.94241
-0.133546
1.17134
-0.163564
1.40112
-0.191922
1.6587
-0.216167
1.95624
-0.233197
2.29814
-0.239425
2.6893
-0.231084
3.1361
-0.209027
3.04764
-0.181898
2.48099
-0.15376
2.03199
-0.126658
1.67178
-0.10188
1.37991
-0.0793724
1.13884
-0.0574187
0.924016
-0.0343156
0.688387
-0.0111823
0.387242
0.0933313
-0.0458164
0.306089
-0.106539
0.710579
-0.152403
0.988275
-0.191208
1.21014
-0.226588
1.4365
-0.257167
1.68928
-0.281107
1.98018
-0.295314
2.31234
-0.296768
2.69075
-0.282023
3.12136
-0.253513
3.01913
-0.221148
2.44863
-0.1887
1.99954
-0.157754
1.64084
-0.128749
1.35091
-0.101509
1.1116
-0.0738815
0.896388
-0.0416953
0.656201
-0.0124534
0.358001
0.0808779
-0.028985
0.335074
-0.0785607
0.760155
-0.124341
1.03405
-0.168084
1.25389
-0.20941
1.47783
-0.248902
1.72878
-0.284069
2.01535
-0.31256
2.34083
-0.330606
2.7088
-0.33106
3.12181
-0.310565
2.99864
-0.277395
2.41546
-0.237447
1.9596
-0.194622
1.59801
-0.151131
1.30742
-0.107979
1.06845
-0.0663505
0.85476
-0.0301278
0.619979
-0.00638246
0.334255
0.0744954
-0.00298614
0.338061
-0.0281797
0.785349
-0.0626134
1.06849
-0.10069
1.29196
-0.138307
1.51544
-0.17384
1.76431
-0.205698
2.04721
-0.231274
2.36641
-0.246107
2.72363
-0.243644
3.11935
-0.221357
2.97635
-0.188008
2.38211
-0.149706
1.92129
-0.11027
1.55857
-0.0725557
1.2697
-0.0381579
1.03405
-0.00878751
0.82539
0.00848589
0.602705
0.00773591
0.335005
0.0822313
0.00395555
0.334105
-0.0101298
0.799434
-0.0351525
1.09351
-0.0646398
1.32145
-0.0953165
1.54612
-0.125554
1.79455
-0.153476
2.07513
-0.175943
2.38888
-0.188409
2.7361
-0.185275
3.11622
-0.164944
2.95602
-0.136174
2.35334
-0.104631
1.88975
-0.073425
1.52737
-0.0442604
1.24054
-0.0188005
1.00859
0.000470952
0.806118
0.0097494
0.593427
0.00692572
0.337829
0.089157
0.00585164
0.328253
-0.00363643
0.808922
-0.0231577
1.11303
-0.0467796
1.34507
-0.0708775
1.57022
-0.0960876
1.81976
-0.120079
2.09912
-0.139729
2.40853
-0.15091
2.74728
-0.148815
3.11412
-0.131805
2.93901
-0.107774
2.32931
-0.0821486
1.86413
-0.0574402
1.50266
-0.0344806
1.21758
-0.0144508
0.988562
0.000845023
0.790822
0.00675475
0.587517
0.0041481
0.340435
0.0933051
0.00744115
0.320812
0.00073189
0.815631
-0.016847
1.13061
-0.0365442
1.36477
-0.057126
1.5908
-0.0787856
1.84142
-0.099687
2.12002
-0.117177
2.42601
-0.127664
2.75776
-0.126528
3.11299
-0.112372
2.92485
-0.0926142
2.30955
-0.0711838
1.8427
-0.0503836
1.48186
-0.0315415
1.19874
-0.0156161
0.972637
-0.00412299
0.779329
0.00147869
0.581915
0.00104446
0.34087
0.0943496
0.0066276
0.314185
0.00228839
0.81997
-0.0128484
1.14575
-0.030874
1.38279
-0.0497073
1.60963
-0.0690156
1.86072
-0.0877508
2.13876
-0.103651
2.44191
-0.113679
2.76779
-0.113369
3.11267
-0.100959
2.91244
-0.0827782
2.29137
-0.0638057
1.82372
-0.0462047
1.46426
-0.030694
1.18323
-0.0177066
0.959649
-0.00841197
0.770035
-0.00274234
0.576246
-0.000570056
0.338697
0.0937795
0.00470647
0.309478
0.00204047
0.822636
-0.0111877
1.15898
-0.0278546
1.39946
-0.0456222
1.6274
-0.0635976
1.8787
-0.080959
2.15612
-0.0959545
2.45691
-0.106133
2.77797
-0.106966
3.11351
-0.0965792
2.90206
-0.0809589
2.27575
-0.0636114
1.80638
-0.0472841
1.44793
-0.0330436
1.16899
-0.0211464
0.947752
-0.0121103
0.760999
-0.00576422
0.5699
-0.00159153
0.334525
0.092188
0.0023982
0.30708
0.000226624
0.824808
-0.0115465
1.17075
-0.0266477
1.41456
-0.0433445
1.6441
-0.060533
1.89589
-0.0772323
2.17282
-0.0919638
2.47164
-0.102432
2.78844
-0.104031
3.11511
-0.0944628
2.89249
-0.0793959
2.26068
-0.0637119
1.79069
-0.0484674
1.43269
-0.0352352
1.15575
-0.0240078
0.936525
-0.0145559
0.751547
-0.00725806
0.562602
-0.00215411
0.329421
0.0900339
0.000175943
0.306904
-0.00293044
0.827914
-0.0131577
1.18098
-0.0265717
1.42798
-0.0421214
1.65965
-0.0586689
1.91244
-0.075131
2.18928
-0.0900828
2.48659
-0.101379
2.79973
-0.105034
3.11876
-0.0976447
2.8851
-0.0835707
2.24661
-0.0674
1.77452
-0.0526373
1.41792
-0.0389277
1.14204
-0.0268075
0.924405
-0.0172935
0.742033
-0.00926026
0.554568
-0.00284406
0.323005
0.0871898
-0.00107336
0.307977
-0.00593126
0.832772
-0.0152226
1.19027
-0.0273731
1.44013
-0.0417848
1.67406
-0.0576396
1.92829
-0.0739806
2.20562
-0.0895843
2.5022
-0.102296
2.81245
-0.107606
3.12407
-0.101621
2.87912
-0.0889684
2.23395
-0.0733964
1.75895
-0.056872
1.4014
-0.0425543
1.12773
-0.0306417
0.912492
-0.0195154
0.730906
-0.0103466
0.5454
-0.00339763
0.316056
0.0837922
-0.002968
0.310945
-0.00789841
0.837703
-0.0168764
1.19925
-0.0283713
1.45162
-0.0420128
1.6877
-0.0572746
1.94355
-0.0734872
2.22183
-0.089711
2.51842
-0.103509
2.82624
-0.111158
3.13172
-0.107466
2.87542
-0.0946172
2.2211
-0.0785514
1.74288
-0.0630326
1.38588
-0.0484123
1.11311
-0.0347756
0.898855
-0.0232784
0.719409
-0.0127818
0.534903
-0.00415619
0.30743
0.079636
-0.00398484
0.31493
-0.00917537
0.842893
-0.0179162
1.20799
-0.0291085
1.46281
-0.0423124
1.70091
-0.0571274
1.95837
-0.0731975
2.2379
-0.0899137
2.53514
-0.1051
2.84143
-0.115215
3.14184
-0.113878
2.87409
-0.103384
2.21061
-0.0874175
1.72692
-0.0695344
1.368
-0.0523703
1.09594
-0.037589
0.884074
-0.0248557
0.706676
-0.0137177
0.523765
-0.00469231
0.298405
0.0749437
-0.00424336
0.319174
-0.009932
0.848582
-0.0184773
1.21653
-0.0294142
1.47375
-0.0423342
1.71383
-0.056877
1.97291
-0.0729224
2.25395
-0.0902177
2.55243
-0.106956
2.85817
-0.119636
3.15452
-0.121453
2.8759
-0.111578
2.20074
-0.0946467
1.70999
-0.0762284
1.34958
-0.0594557
1.07917
-0.0450826
0.869701
-0.0307875
0.692381
-0.0164931
0.509471
-0.00539576
0.287307
0.0695479
-0.00420013
0.323374
-0.0102639
0.854646
-0.0186308
1.2249
-0.0292711
1.48439
-0.0418917
1.72645
-0.0562465
1.98726
-0.0724081
2.27011
-0.0902549
2.57028
-0.108216
2.87613
-0.123299
3.1696
-0.127909
2.88051
-0.121096
2.19392
-0.106809
1.6957
-0.0863824
1.32915
-0.0656704
1.05846
-0.0455384
0.849569
-0.0293045
0.676147
-0.0167002
0.496866
-0.00562978
0.276237
0.0639181
-0.00415325
0.327527
-0.0104512
0.860944
-0.0186295
1.23308
-0.0288887
1.49465
-0.0411539
1.73871
-0.0553035
2.00141
-0.0715224
2.28633
-0.0897623
2.58852
-0.108977
2.89535
-0.127196
3.18782
-0.135727
2.88904
-0.130717
2.18891
-0.115147
1.68013
-0.0961414
1.31015
-0.0732014
1.03552
-0.0543931
0.830761
-0.0381454
0.659899
-0.0202331
0.478954
-0.00604426
0.262048
0.0578739
-0.00405862
0.331586
-0.0103285
0.867213
-0.0182973
1.24105
-0.0281906
1.50454
-0.0400826
1.7506
-0.0539723
2.0153
-0.0701924
2.30255
-0.0888289
2.60716
-0.109261
2.91578
-0.129218
3.20778
-0.139951
2.89978
-0.137671
2.18663
-0.126731
1.66919
-0.105434
1.28885
-0.0811884
1.01127
-0.0548551
0.804427
-0.0325559
0.6376
-0.0168326
0.463231
-0.00444729
0.249663
0.0534266
-0.003937
0.335523
-0.0101778
0.873454
-0.0178531
1.24872
-0.0273695
1.51406
-0.0388647
1.7621
-0.0524335
2.02887
-0.0685413
2.31866
-0.0874044
2.62602
-0.108794
2.93717
-0.131171
3.23015
-0.147059
2.91566
-0.149618
2.18919
-0.137396
1.65697
-0.117461
1.26892
-0.0920405
0.985852
-0.0652166
0.777604
-0.0391967
0.61158
-0.0175876
0.441622
-0.0035391
0.235614
0.0498875
-0.00373329
0.339256
-0.00976471
0.879486
-0.0171637
1.25612
-0.0263091
1.52321
-0.0374008
1.77319
-0.0506058
2.04208
-0.0665277
2.33458
-0.0854747
2.64497
-0.107613
2.95931
-0.132003
3.25454
-0.150536
2.9342
-0.157402
2.19606
-0.153167
1.65273
-0.135318
1.25107
-0.10562
0.956153
-0.0654197
0.737404
-0.0254767
0.571637
0.00321627
0.412929
0.0144046
0.224426
0.0642921
-0.00348046
0.342736
-0.00937484
0.88538
-0.0164484
1.26319
-0.0251855
1.53194
-0.0358414
1.78385
-0.0486352
2.05487
-0.0642423
2.35019
-0.0831114
2.66384
-0.105762
2.98196
-0.131888
3.28067
-0.154048
2.95636
-0.164797
2.20681
-0.160673
1.64861
-0.14618
1.23657
-0.117988
0.927961
-0.0810835
0.700499
-0.0298469
0.5204
0.0142412
0.36884
0.0116613
0.227006
0.0759535
-0.00320405
0.34594
-0.00879697
0.890973
-0.0155619
1.26996
-0.023886
1.54027
-0.0341333
1.79409
-0.0464876
2.06723
-0.0617575
2.36546
-0.0805331
2.68261
-0.103526
3.00495
-0.13093
3.30807
-0.155124
2.98055
-0.169805
2.22149
-0.176154
1.65496
-0.166292
1.22671
-0.142837
0.904506
-0.0931145
0.650777
-0.00264791
0.429934
0.109591
0.256602
0.150619
0.185978
0.226572
-0.00302846
0.348969
-0.0084708
0.896415
-0.0150748
1.27656
-0.0232865
1.54848
-0.0335769
1.80438
-0.0461981
2.07985
-0.0621445
2.3814
-0.0822112
2.70268
-0.107767
3.03051
-0.139976
3.34028
-0.171496
3.01207
-0.195089
2.24508
-0.202338
1.66221
-0.195898
1.22027
-0.178018
0.886625
-0.158289
0.631049
-0.178777
0.450421
-0.37672
0.454545
-0.899901
0.709158
0.882639
-1.55597
-0.00284537
0.351814
-0.00794672
0.901517
-0.0143085
1.28292
-0.0222851
1.55646
-0.0323693
1.81447
-0.0449239
2.0924
-0.0610573
2.39754
-0.0817951
2.72342
-0.108874
3.05758
-0.143832
3.37524
-0.179094
3.04733
-0.207326
2.27331
-0.235912
1.69079
-0.254086
1.23845
-0.26785
0.900389
-0.342311
0.70551
-0.676469
0.784579
-1.36264
1.14072
-1.98147
1.32799
1.22522
-2.32405
-0.00262217
0.354436
-0.00744766
0.906342
-0.0135193
1.289
-0.0212172
1.56415
-0.0310672
1.82432
-0.0435243
2.10486
-0.0597956
2.41381
-0.0811471
2.74477
-0.109739
3.08618
-0.148448
3.41395
-0.191566
3.09045
-0.231797
2.31354
-0.261403
1.7204
-0.281779
1.25882
-0.369738
0.988348
-0.724572
1.06034
-1.46279
1.5228
-2.06178
1.7397
-2.31323
1.57944
1.34603
-2.43404
-0.00232303
0.356759
-0.00681827
0.910837
-0.0126104
1.29479
-0.0200197
1.57156
-0.0295898
1.83389
-0.0419005
2.11717
-0.0582139
2.43012
-0.0800126
2.76657
-0.109925
3.11609
-0.151675
3.4557
-0.201059
3.13984
-0.244778
2.35726
-0.296568
1.77219
-0.39211
1.35436
-0.686585
1.28282
-1.37444
1.7482
-1.98603
2.13439
-2.23757
1.99124
-2.35784
1.69972
1.4152
-2.42701
-0.00204743
0.358807
-0.00617797
0.914968
-0.0116398
1.30025
-0.0187094
1.57863
-0.0280287
1.84321
-0.0401383
2.12928
-0.056412
2.4464
-0.0786003
2.78875
-0.10979
3.14728
-0.154692
3.5006
-0.209964
3.19511
-0.267878
2.41518
-0.324497
1.8288
-0.486023
1.51589
-1.02673
1.82353
-1.72476
2.44623
-2.07585
2.48548
-2.23652
2.15191
-2.32561
1.78881
1.4845
-2.39492
-0.00185383
0.360661
-0.00578379
0.918898
-0.0112022
1.30567
-0.0181956
1.58563
-0.027591
1.8526
-0.039783
2.14147
-0.0563142
2.46293
-0.0791095
2.81155
-0.111624
3.17979
-0.159173
3.54815
-0.22075
3.25668
-0.282089
2.47652
-0.380222
1.92694
-0.724651
1.86032
-1.41832
2.5172
-1.92713
2.95504
-2.14178
2.70012
-2.25621
2.26634
-2.33706
1.86966
1.55182
-2.40438
-0.00175225
0.362413
-0.00576526
0.922911
-0.0113795
1.31128
-0.0186464
1.59289
-0.0283844
1.86234
-0.0409821
2.15407
-0.05806
2.48
-0.0817193
2.83521
-0.115825
3.2139
-0.166793
3.59912
-0.231722
3.32161
-0.304192
2.54899
-0.479075
2.10182
-0.966585
2.34783
-1.60634
3.15696
-1.92071
3.2694
-2.08064
2.86006
-2.20279
2.38849
-2.30046
1.96734
1.61999
-2.36863
-0.00155135
0.363964
-0.00564059
0.927
-0.0114933
1.31714
-0.0190905
1.60049
-0.0291313
1.87238
-0.0421384
2.16708
-0.0597551
2.49762
-0.084287
2.85974
-0.119867
3.24948
-0.173246
3.6525
-0.245198
3.39357
-0.338793
2.64258
-0.585608
2.34864
-1.17369
2.93591
-1.70014
3.68341
-1.9218
3.49106
-2.07656
3.01482
-2.21903
2.53096
-2.34575
2.09406
1.68803
-2.41379
-0.00131725
0.365281
-0.00546337
0.931146
-0.0114941
1.32317
-0.0194622
1.60846
-0.0298483
1.88277
-0.0432538
2.18048
-0.0614103
2.51578
-0.0867244
2.88505
-0.123729
3.28648
-0.180219
3.70898
-0.25393
3.46728
-0.369855
2.75851
-0.699696
2.67848
-1.31075
3.54696
-1.70977
4.08244
-1.90581
3.6871
-2.02929
3.13829
-2.1419
2.64357
-2.22517
2.17733
1.68618
-2.22331
-0.000984592
0.366266
-0.00511338
0.935275
-0.0113736
1.32943
-0.019709
1.61679
-0.0303666
1.89343
-0.0441202
2.19423
-0.0627251
2.53438
-0.0887396
2.91107
-0.126848
3.32459
-0.186024
3.76816
-0.267634
3.54889
-0.416223
2.9071
-0.807713
3.06997
-1.36526
4.1045
-1.6649
4.38208
-1.85446
3.87666
-1.97059
3.25442
-1.98697
2.65994
-1.94947
2.13983
1.69633
-1.95962
-0.000638845
0.366905
-0.00466255
0.939299
-0.0110188
1.33578
-0.0196932
1.62547
-0.0304949
1.90423
-0.0443517
2.20809
-0.0630024
2.55303
-0.0889023
2.93697
-0.126756
3.36245
-0.184455
3.82586
-0.26615
3.63058
-0.44291
3.08386
-0.859455
3.48651
-1.32845
4.5735
-1.53696
4.59059
-1.63077
3.97046
-1.66005
3.28371
-1.53443
2.53432
-1.05664
1.66204
0.639689
-0.000162029
0.367067
-0.00379546
0.942932
-0.0104053
1.34239
-0.0194745
1.63454
-0.0306408
1.91539
-0.045176
2.22263
-0.0649349
2.57279
-0.0925013
2.96453
-0.133018
3.40296
-0.196569
3.88941
-0.291985
3.726
-0.498641
3.29051
-0.963688
3.95156
-1.37356
4.98337
-1.50546
4.7225
-1.52574
3.99074
-1.45062
3.20859
-1.23991
2.32361
-0.688689
1.11082
-0.0489996
0.000549597
0.366517
-0.00256155
0.946043
-0.00935405
1.34919
-0.0187687
1.64395
-0.0302084
1.92683
-0.045313
2.23773
-0.0658795
2.59336
-0.0948193
2.99347
-0.137804
3.44595
-0.206218
3.95782
-0.311604
3.83138
-0.556128
3.53504
-1.05799
4.45342
-1.38733
5.31271
-1.47572
4.81089
-1.47359
3.9886
-1.30954
3.04454
-0.850825
1.8649
-0.145452
0.405449
-0.194452
0.00152424
0.364993
-0.000581527
0.948149
-0.00780031
1.3564
-0.0172531
1.6534
-0.028767
1.93835
-0.0443008
2.25326
-0.0656388
2.6147
-0.0957241
3.02356
-0.140824
3.49105
-0.21248
4.02948
-0.331657
3.95056
-0.605627
3.80901
-1.10472
4.9525
-1.34828
5.55628
-1.40196
4.86457
-1.36085
3.94749
-1.09817
2.78186
-0.411018
1.17774
0.0256799
-0.031249
-0.168772
0.00236819
0.362625
0.00111978
0.949397
-0.00575573
1.36328
-0.0149646
1.66261
-0.0264865
1.94987
-0.0422231
2.269
-0.0634901
2.63596
-0.0939821
3.05405
-0.140035
3.5371
-0.215184
4.10463
-0.346359
4.08174
-0.660581
4.12323
-1.14001
5.43193
-1.30761
5.72387
-1.33469
4.89166
-1.20694
3.81974
-0.813602
2.38853
-0.145348
0.509487
0.0256125
-0.202209
-0.143159
0.00359867
0.359026
0.0032935
0.949703
-0.00262451
1.3692
-0.0111007
1.67109
-0.0223532
1.96112
-0.0379548
2.2846
-0.0586147
2.65662
-0.0888186
3.08426
-0.134912
3.58319
-0.213352
4.18307
-0.354572
4.22296
-0.666148
4.43481
-1.08833
5.85411
-1.21494
5.85049
-1.22594
4.90265
-1.01882
3.61262
-0.478995
1.84871
-0.011304
0.0417956
0.0206495
-0.234163
-0.12251
0.00481881
0.354207
0.00593919
0.948582
0.00123263
1.3739
-0.00622021
1.67854
-0.0169789
1.97188
-0.0314719
2.2991
-0.051027
2.67618
-0.0807935
3.11402
-0.127128
3.62953
-0.204754
4.2607
-0.361837
4.38004
-0.683153
4.75612
-1.03023
6.20119
-1.11651
5.93677
-1.10645
4.89259
-0.84691
3.35308
-0.259575
1.26137
-0.0384759
-0.179304
-0.0092299
-0.263409
-0.13174
0.00684398
0.347363
0.0102483
0.945178
0.00764353
1.37651
0.001493
1.68469
-0.00860551
1.98198
-0.0211428
2.31163
-0.038742
2.69378
-0.0667118
3.14199
-0.109549
3.67237
-0.177427
4.32857
-0.328324
4.53094
-0.628836
5.05663
-0.887058
6.45941
-0.952471
6.00219
-0.914819
4.85493
-0.654576
3.09284
-0.124024
0.730819
-0.0525321
-0.250795
-0.0167241
-0.299217
-0.148464
0.0087502
0.338613
0.0145675
0.939361
0.0137408
1.37734
0.00906092
1.68937
0.00175884
1.98928
-0.00696062
2.32035
-0.0211143
2.70793
-0.0440611
3.16494
-0.079875
3.70818
-0.142337
4.39103
-0.294725
4.68332
-0.548548
5.31046
-0.727905
6.63877
-0.784977
6.05926
-0.784846
4.8548
-0.589056
2.89704
-0.243387
0.38515
-0.179623
-0.314559
-0.0851359
-0.393704
-0.2336
0.0113086
0.327305
0.0206428
0.930026
0.0228131
1.37517
0.0216286
1.69056
0.0183542
1.99256
0.0125768
2.32613
0.00251877
2.71799
-0.0166031
3.18406
-0.0508611
3.74244
-0.122983
4.46316
-0.256432
4.81677
-0.398627
5.45265
-0.502101
6.74224
-0.555384
6.11254
-0.582357
4.88178
-0.538354
2.85304
-0.535619
0.382416
-0.404984
-0.445194
-0.194773
-0.603915
-0.428373
0.0134703
0.313834
0.0264284
0.917068
0.0327637
1.36883
0.0360091
1.68731
0.0367191
1.99185
0.0376262
2.32522
0.0345696
2.72105
0.0204994
3.19813
-0.0145113
3.77745
-0.0934097
4.54205
-0.166917
4.89028
-0.181364
5.4671
-0.206075
6.76695
-0.196224
6.10269
-0.170941
4.85649
-0.213978
2.89608
-0.48838
0.656817
-0.480659
-0.452915
-0.234799
-0.849775
-0.663172
0.0164513
0.297383
0.0344303
0.899089
0.0461327
1.35713
0.0549433
1.6785
0.0623243
1.98446
0.0711373
2.31641
0.0794705
2.71271
0.0809281
3.19667
0.0608981
3.79748
-0.0177469
4.6207
-0.0192168
4.89175
0.0881106
5.35977
0.209041
6.64602
0.392933
5.9188
0.588118
4.66131
0.496015
2.98818
0.0878175
1.06502
-0.168722
-0.196376
-0.15919
-0.859307
-0.822361
0.0182624
0.279121
0.0408653
0.876486
0.0589879
1.339
0.0752276
1.66226
0.0917447
1.96795
0.112738
2.29542
0.138049
2.6874
0.164474
3.17025
0.182496
3.77946
0.146703
4.65649
0.11517
4.92328
0.348886
5.12606
0.690856
6.30405
0.99226
5.6174
1.23096
4.42261
1.16978
3.04936
0.779729
1.45507
0.41122
0.172133
0.135749
-0.583836
-0.686612
0.0204097
0.258711
0.0490486
0.847847
0.0745012
1.31355
0.0995349
1.63723
0.127341
1.94014
0.163782
2.25898
0.209447
2.64174
0.270787
3.10891
0.361867
3.68838
0.462966
4.55539
0.448988
4.93726
0.617516
4.95753
1.05856
5.86301
1.33339
5.34257
1.47403
4.28197
1.43661
3.08678
1.08722
1.80446
0.696926
0.562423
0.306057
-0.192967
-0.380555
0.0208663
0.237845
0.052525
0.816189
0.0857663
1.28031
0.12196
1.60103
0.163525
1.89858
0.218176
2.20432
0.292532
2.56738
0.411081
2.99036
0.613403
3.48605
0.843104
4.32569
0.875172
4.90519
0.853507
4.97919
1.17645
5.54006
1.35255
5.16647
1.43404
4.20048
1.37507
3.14574
1.10644
2.07309
0.715696
0.95317
0.308877
0.213852
-0.0716781
0.0236611
0.214183
0.0588836
0.780966
0.098243
1.24095
0.144039
1.55524
0.199919
1.8427
0.274039
2.1302
0.385916
2.4555
0.574612
2.80166
0.866927
3.19374
1.16425
4.02837
1.20955
4.85989
0.998746
5.19
1.08328
5.45553
1.15709
5.09266
1.18711
4.17045
1.09798
3.23488
0.867583
2.30348
0.586123
1.23463
0.25335
0.546625
0.181672
0.0254554
0.188728
0.0604528
0.745969
0.103457
1.19795
0.156872
1.50182
0.224621
1.77495
0.316025
2.0388
0.455885
2.31565
0.684258
2.57329
1.00522
2.87278
1.38113
3.65245
1.46532
4.7757
1.14618
5.50914
1.06796
5.53375
1.03869
5.12193
0.904478
4.30467
0.696029
3.44333
0.548765
2.45075
0.405448
1.37795
0.164625
0.787448
0.346297
0.0320185
0.156709
0.0662561
0.711731
0.110028
1.15417
0.164702
1.44715
0.231888
1.70776
0.321854
1.94883
0.452358
2.18514
0.644791
2.38086
0.906843
2.61073
1.27111
3.28819
1.40389
4.64292
1.0967
5.81632
0.81007
5.82039
0.559918
5.37208
0.310148
4.55444
0.218451
3.53502
0.295405
2.37379
0.223953
1.4494
0.0745805
0.936821
0.420878
0.0464553
0.110254
0.0851629
0.673024
0.120777
1.11856
0.160833
1.40709
0.209953
1.65864
0.267477
1.89131
0.330726
2.12189
0.389286
2.3223
0.438743
2.56127
0.447596
3.27934
0.415604
4.67491
0.0942671
6.13766
-0.235675
6.15033
-0.368943
5.50535
-0.264272
4.44977
-0.0488991
3.31965
0.127829
2.19706
0.0852414
1.49199
0.0136828
1.00838
0.43456
0.0542528
0.0560013
0.115812
0.611464
0.147756
1.08662
0.165892
1.38896
0.180003
1.64453
0.176394
1.89492
0.138679
2.15961
0.0305178
2.43046
-0.172077
2.76387
-0.482297
3.58956
-0.804142
4.99676
-1.02814
6.36165
-0.966236
6.08843
-0.734221
5.27334
-0.318145
4.03369
0.0172471
2.98426
0.122098
2.09221
0.0708668
1.54322
0.0158187
1.06343
0.450379
0.0276226
0.0283787
0.0841524
0.554934
0.106405
1.06436
0.102476
1.39289
0.0807429
1.66626
0.0255887
1.95007
-0.0795239
2.26472
-0.263329
2.61426
-0.550873
3.05141
-0.889424
3.92811
-1.11635
5.22368
-1.0419
6.2872
-0.785567
5.83209
-0.449696
4.93747
-0.132449
3.71644
0.0603351
2.79147
0.0860881
2.06646
0.0499583
1.57935
0.011142
1.10224
0.461521
-0.00634437
0.0347231
0.0079616
0.540628
0.000156697
1.07217
-0.0277051
1.42075
-0.0761115
1.71467
-0.155397
2.02936
-0.284941
2.39426
-0.491953
2.82127
-0.804384
3.36384
-1.16283
4.28656
-1.33067
5.39152
-1.127
6.08354
-0.782693
5.48778
-0.387134
4.54191
-0.119477
3.44879
0.01463
2.65737
0.0255052
2.05559
0.00357173
1.60128
-0.00847425
1.11429
0.453047
-0.0268134
0.0615365
-0.0436314
0.557446
-0.0672005
1.09574
-0.107806
1.46135
-0.168558
1.77542
-0.257705
2.11851
-0.39126
2.52782
-0.593193
3.02321
-0.887584
3.65823
-1.22389
4.62286
-1.30952
5.47715
-1.02389
5.79791
-0.652572
5.11646
-0.297752
4.18709
-0.104858
3.25589
-0.0227797
2.57529
-0.0170363
2.04984
-0.0263413
1.61059
-0.0201151
1.10806
0.432932
-0.035649
0.0971855
-0.0666557
0.588453
-0.0971507
1.12623
-0.144197
1.5084
-0.209654
1.84088
-0.298964
2.20782
-0.423189
2.65204
-0.600213
3.20023
-0.846028
3.90405
-1.13673
4.91356
-1.17629
5.51672
-0.85848
5.48009
-0.515873
4.77386
-0.242333
3.91355
-0.108862
3.12242
-0.0545279
2.52095
-0.0452045
2.04052
-0.0427009
1.60808
-0.0284781
1.09384
0.404454
-0.0360094
0.133195
-0.0752681
0.627712
-0.106191
1.15716
-0.149532
1.55174
-0.2116
1.90295