/*--------------------------------*- C++ -*----------------------------------*\
| =========                 |                                                 |
| \\      /  F ield         | OpenFOAM: The Open Source CFD Toolbox           |
|  \\    /   O peration     | Version:  v2012                                 |
|   \\  /    A nd           | Website:  www.openfoam.com                      |
|    \\/     M anipulation  |                                                 |
\*---------------------------------------------------------------------------*/
FoamFile
{
    version     2.0;
    format      ascii;
    class       volVectorField;
    location    "14";
    object      U;
}
// * * * * * * * * * * * * * * * * * * * * * * * * * * * * * * * * * * * * * //

dimensions      [0 1 -1 0 0 0 0];


internalField   nonuniform List<vector> 
2200
(
(0.87848 -0.03022 0)
(1.00565 -0.051252 0)
(1.00311 -0.0351491 0)
(1.00027 -0.0242436 0)
(0.99972 -0.0164089 0)
(0.999563 -0.0103656 0)
(0.999697 -0.00652722 0)
(1.00003 -0.00401003 0)
(1.00013 -0.00221456 0)
(1.00014 -0.000716916 0)
(1.00008 0.000898383 0)
(1.00014 0.00243739 0)
(1.00002 0.00418194 0)
(0.999652 0.00664261 0)
(0.99953 0.0104303 0)
(0.999702 0.0164565 0)
(1.00027 0.0242899 0)
(1.00314 0.0351945 0)
(1.00566 0.0512637 0)
(0.878481 0.0302373 0)
(0.71345 -0.0328593 0)
(0.996959 -0.0625673 0)
(1.03368 -0.0558707 0)
(1.02518 -0.0462919 0)
(1.01664 -0.0361535 0)
(1.01018 -0.0263453 0)
(1.00584 -0.0183366 0)
(1.00331 -0.011729 0)
(1.00213 -0.00628269 0)
(1.00197 -0.00175757 0)
(1.00189 0.00233399 0)
(1.00207 0.00675051 0)
(1.00321 0.0121225 0)
(1.00574 0.0186875 0)
(1.01012 0.0267085 0)
(1.0166 0.0364667 0)
(1.02511 0.0465332 0)
(1.03355 0.0560223 0)
(0.996842 0.0627103 0)
(0.713308 0.0328876 0)
(0.535708 -0.0237987 0)
(0.970853 -0.0564891 0)
(1.05572 -0.0537808 0)
(1.05119 -0.0476269 0)
(1.0354 -0.0393372 0)
(1.0244 -0.0315688 0)
(1.01633 -0.0232789 0)
(1.01095 -0.015217 0)
(1.00779 -0.00827706 0)
(1.00621 -0.00223602 0)
(1.0062 0.00312548 0)
(1.00767 0.00920088 0)
(1.0108 0.0160636 0)
(1.01622 0.0240886 0)
(1.02424 0.0322 0)
(1.0352 0.0398435 0)
(1.05097 0.0480196 0)
(1.0555 0.0541231 0)
(0.970426 0.0566785 0)
(0.535092 0.023859 0)
(0.396216 -0.0125729 0)
(0.914703 -0.0448906 0)
(1.05935 -0.0448176 0)
(1.06961 -0.0415166 0)
(1.05385 -0.0348735 0)
(1.03861 -0.0289067 0)
(1.0269 -0.0227509 0)
(1.01845 -0.0163238 0)
(1.01313 -0.00952828 0)
(1.01058 -0.00270517 0)
(1.01043 0.00413658 0)
(1.01287 0.0108643 0)
(1.01811 0.0175084 0)
(1.02643 0.0236656 0)
(1.03807 0.0296986 0)
(1.05328 0.035521 0)
(1.069 0.0420424 0)
(1.05858 0.045199 0)
(0.913702 0.0451202 0)
(0.395067 0.0126299 0)
(0.318182 -0.00366535 0)
(0.854055 -0.0299755 0)
(1.05312 -0.0369167 0)
(1.08138 -0.0350488 0)
(1.06882 -0.0298866 0)
(1.05177 -0.0245425 0)
(1.03805 -0.0195799 0)
(1.02755 -0.0145709 0)
(1.0202 -0.00900305 0)
(1.01641 -0.00262631 0)
(1.01629 0.00460047 0)
(1.01991 0.0106648 0)
(1.02699 0.0159662 0)
(1.03741 0.0208906 0)
(1.05107 0.0256095 0)
(1.06811 0.0308131 0)
(1.08057 0.0358298 0)
(1.05199 0.0375057 0)
(0.852326 0.0302781 0)
(0.316476 0.00372631 0)
(0.279625 0.000560906 0)
(0.800658 -0.016936 0)
(1.03814 -0.0271204 0)
(1.08564 -0.0277194 0)
(1.07815 -0.0246275 0)
(1.06096 -0.0199238 0)
(1.04753 -0.0157616 0)
(1.03698 -0.0116841 0)
(1.02894 -0.007012 0)
(1.02456 -0.00177023 0)
(1.02433 0.00439607 0)
(1.02833 0.00940204 0)
(1.03616 0.0138321 0)
(1.04654 0.0175678 0)
(1.05986 0.0215172 0)
(1.07699 0.0259133 0)
(1.08427 0.0287353 0)
(1.03618 0.0278538 0)
(0.797772 0.0172722 0)
(0.277262 -0.00047335 0)
(0.263145 0.00165031 0)
(0.760713 -0.00748265 0)
(1.02036 -0.0168495 0)
(1.08375 -0.0188787 0)
(1.08091 -0.018114 0)
(1.06484 -0.0155847 0)
(1.0511 -0.0131347 0)
(1.04053 -0.00982185 0)
(1.03303 -0.00561577 0)
(1.02912 -0.000917449 0)
(1.02878 0.00416443 0)
(1.03213 0.00874126 0)
(1.0392 0.0126122 0)
(1.04943 0.015452 0)
(1.06305 0.0173664 0)
(1.07892 0.0195405 0)
(1.08142 0.0199508 0)
(1.01731 0.0175714 0)
(0.756672 0.00781942 0)
(0.260017 -0.00154671 0)
(0.260013 0.00141574 0)
(0.737064 -0.00148315 0)
(1.00458 -0.00772762 0)
(1.07758 -0.0102473 0)
(1.07831 -0.0113361 0)
(1.06388 -0.0113471 0)
(1.0509 -0.0105515 0)
(1.04125 -0.00811998 0)
(1.03442 -0.00463838 0)
(1.03076 -0.000195641 0)
(1.03035 0.00425907 0)
(1.03334 0.00839873 0)
(1.03968 0.0113473 0)
(1.04877 0.0130332 0)
(1.06154 0.0134785 0)
(1.07568 0.0130158 0)
(1.07448 0.01155 0)
(1.0005 0.00860177 0)
(0.731983 0.00188818 0)
(0.255975 -0.00130444 0)
(0.261845 0.000940319 0)
(0.727678 0.000709263 0)
(0.99388 -0.00253054 0)
(1.07125 -0.00512628 0)
(1.07505 -0.00690995 0)
(1.06332 -0.0081872 0)
(1.05181 -0.00815795 0)
(1.04303 -0.00653402 0)
(1.03666 -0.00370992 0)
(1.033 0.000424771 0)
(1.03243 0.00461182 0)
(1.03516 0.00836707 0)
(1.04091 0.0106945 0)
(1.04915 0.0119319 0)
(1.06022 0.0112127 0)
(1.07152 0.0092997 0)
(1.06718 0.00696909 0)
(0.988616 0.00375872 0)
(0.720869 -0.000123981 0)
(0.256874 -0.000766618 0)
(0.264785 0.000297216 0)
(0.725242 0.000587261 0)
(0.988297 -0.00110236 0)
(1.06686 -0.00360785 0)
(1.07304 -0.00541494 0)
(1.06416 -0.00659938 0)
(1.05501 -0.0064702 0)
(1.04753 -0.00496171 0)
(1.04181 -0.00242866 0)
(1.03813 0.00137728 0)
(1.03715 0.005213 0)
(1.03931 0.00860122 0)
(1.04397 0.0105377 0)
(1.05076 0.0111379 0)
(1.05943 0.0104182 0)
(1.06802 0.0084657 0)
(1.06114 0.00591911 0)
(0.980954 0.00262551 0)
(0.716568 8.75411e-05 0)
(0.258179 -0.000118834 0)
(0.265904 -3.68674e-06 0)
(0.724681 0.000439485 0)
(0.984358 -0.000593753 0)
(1.06248 -0.00290471 0)
(1.07025 -0.00466165 0)
(1.06377 -0.00570388 0)
(1.05661 -0.00533767 0)
(1.05061 -0.00369023 0)
(1.04585 -0.00107318 0)
(1.04252 0.00257621 0)
(1.04138 0.00612205 0)
(1.04262 0.00906196 0)
(1.04575 0.0104859 0)
(1.05064 0.0108765 0)
(1.05776 0.0102886 0)
(1.06357 0.00825436 0)
(1.05477 0.00561506 0)
(0.974492 0.00243974 0)
(0.713257 0.000553054 0)
(0.257737 9.61584e-05 0)
(0.266928 0.000188026 0)
(0.724851 0.000624868 0)
(0.980214 0.000339284 0)
(1.0577 -0.00144751 0)
(1.06678 -0.00298044 0)
(1.06235 -0.00402612 0)
(1.05657 -0.00362774 0)
(1.05148 -0.00212937 0)
(1.04725 0.000399766 0)
(1.04406 0.00374812 0)
(1.0428 0.00705871 0)
(1.04349 0.00957408 0)
(1.04578 0.010593 0)
(1.0498 0.0107333 0)
(1.05442 0.00966793 0)
(1.05795 0.00743618 0)
(1.04767 0.00475545 0)
(0.968188 0.00191626 0)
(0.709915 0.000494334 0)
(0.256391 0.000100626 0)
(0.26869 0.000321234 0)
(0.725871 0.0008942 0)
(0.978668 0.00142915 0)
(1.05415 0.000347505 0)
(1.06419 -0.00061689 0)
(1.06142 -0.00137256 0)
(1.0571 -0.00102838 0)
(1.05285 0.000202425 0)
(1.04894 0.00238635 0)
(1.04565 0.00520999 0)
(1.04392 0.0080614 0)
(1.04408 0.00989582 0)
(1.04566 0.010557 0)
(1.04812 0.0101089 0)
(1.05108 0.00869193 0)
(1.05278 0.00648197 0)
(1.04132 0.00398923 0)
(0.962818 0.00159722 0)
(0.707168 0.000466161 0)
(0.25533 0.000114843 0)
(0.270974 0.000272117 0)
(0.728346 0.0010864 0)
(0.978881 0.00180518 0)
(1.05286 0.00148236 0)
(1.06342 0.0011182 0)
(1.06188 0.000946421 0)
(1.05877 0.0015764 0)
(1.05531 0.00284194 0)
(1.05174 0.00484308 0)
(1.0483 0.00725267 0)
(1.0459 0.00951579 0)
(1.04515 0.0106659 0)
(1.04548 0.0107448 0)
(1.04694 0.00969162 0)
(1.04843 0.00809748 0)
(1.04867 0.00599626 0)
(1.03635 0.00382842 0)
(0.95857 0.00183884 0)
(0.704644 0.000733707 0)
(0.254044 0.000200372 0)
(0.273624 0.000297132 0)
(0.731983 0.001308 0)
(0.979951 0.00222265 0)
(1.05305 0.00263717 0)
(1.06355 0.00285913 0)
(1.06273 0.00333691 0)
(1.06037 0.00427395 0)
(1.05744 0.00568201 0)
(1.05404 0.00757867 0)
(1.0504 0.00966661 0)
(1.04729 0.0112945 0)
(1.04546 0.0117878 0)
(1.04486 0.01121 0)
(1.04506 0.0099519 0)
(1.04552 0.00820242 0)
(1.04482 0.00618388 0)
(1.032 0.00419932 0)
(0.954507 0.00237586 0)
(0.701369 0.00108996 0)
(0.251996 0.000288427 0)
(0.276471 0.000370802 0)
(0.735704 0.00150185 0)
(0.982427 0.00278028 0)
(1.05453 0.00351667 0)
(1.06509 0.00439789 0)
(1.06444 0.00546258 0)
(1.06226 0.00696004 0)
(1.05939 0.00876167 0)
(1.05583 0.0107931 0)
(1.05171 0.0127143 0)
(1.04785 0.0137736 0)
(1.04501 0.0136056 0)
(1.04356 0.0123477 0)
(1.0427 0.0107326 0)
(1.04235 0.00864883 0)
(1.04098 0.0065356 0)
(1.02776 0.00455436 0)
(0.950315 0.00278032 0)
(0.697485 0.00132683 0)
(0.249382 0.000333601 0)
(0.280605 0.000538361 0)
(0.741609 0.00207154 0)
(0.986384 0.00394096 0)
(1.05702 0.00544678 0)
(1.06737 0.00682546 0)
(1.06685 0.0084009 0)
(1.06466 0.0102145 0)
(1.06159 0.0122776 0)
(1.05756 0.0144072 0)
(1.05262 0.0161953 0)
(1.04762 0.0167979 0)
(1.04365 0.0159871 0)
(1.04115 0.0142412 0)
(1.03956 0.012106 0)
(1.03855 0.00980824 0)
(1.03672 0.00758377 0)
(1.02319 0.00548919 0)
(0.945393 0.00352042 0)
(0.692383 0.00167908 0)
(0.246019 0.000418145 0)
(0.285244 0.000674997 0)
(0.747654 0.00248314 0)
(0.991391 0.00474061 0)
(1.06117 0.00663745 0)
(1.07107 0.00876439 0)
(1.07029 0.0111286 0)
(1.06779 0.0137818 0)
(1.06426 0.0164941 0)
(1.05951 0.0190302 0)
(1.0535 0.0208377 0)
(1.04723 0.0210236 0)
(1.04215 0.0194973 0)
(1.03871 0.0170906 0)
(1.03638 0.01426 0)
(1.03477 0.0114056 0)
(1.03244 0.00871583 0)
(1.01838 0.00626385 0)
(0.939889 0.00406315 0)
(0.686585 0.00199219 0)
(0.24212 0.000496805 0)
(0.292384 0.000898453 0)
(0.757632 0.00349497 0)
(0.998671 0.00662031 0)
(1.06661 0.00936189 0)
(1.07609 0.0118996 0)
(1.07504 0.0148695 0)
(1.07206 0.0180061 0)
(1.06774 0.0213234 0)
(1.06189 0.0243253 0)
(1.05438 0.0262635 0)
(1.04639 0.0261172 0)
(1.03982 0.0238951 0)
(1.03518 0.0207473 0)
(1.03194 0.0172859 0)
(1.02968 0.0139853 0)
(1.02691 0.0109385 0)
(1.01245 0.00815608 0)
(0.933238 0.0054376 0)
(0.679119 0.00261459 0)
(0.237019 0.00063461 0)
(0.300132 0.00119673 0)
(0.768035 0.00411467 0)
(1.00722 0.00791856 0)
(1.07386 0.0113248 0)
(1.08257 0.0151321 0)
(1.0809 0.0192116 0)
(1.07708 0.0235244 0)
(1.07164 0.0277138 0)
(1.06428 0.0312959 0)
(1.05489 0.0333549 0)
(1.0449 0.0327567 0)
(1.03672 0.029707 0)
(1.0309 0.0256183 0)
(1.02688 0.0212252 0)
(1.02411 0.0169818 0)
(1.02086 0.0130828 0)
(1.00551 0.00949895 0)
(0.924606 0.00624083 0)
(0.669683 0.00306188 0)
(0.230928 0.000764328 0)
(0.312301 0.00156989 0)
(0.783914 0.00602587 0)
(1.01937 0.0110731 0)
(1.08329 0.0156405 0)
(1.09117 0.0198433 0)
(1.08859 0.0249632 0)
(1.08366 0.0301845 0)
(1.07666 0.0353848 0)
(1.06733 0.0397383 0)
(1.05557 0.0419744 0)
(1.04314 0.0408743 0)
(1.03295 0.0368637 0)
(1.02561 0.0316406 0)
(1.02046 0.0261968 0)
(1.01685 0.0210964 0)
(1.01298 0.0164748 0)
(0.997071 0.012368 0)
(0.915222 0.00830986 0)
(0.659014 0.00400592 0)
(0.223339 0.000936704 0)
(0.32612 0.0022032 0)
(0.802694 0.00706171 0)
(1.03406 0.0136092 0)
(1.09548 0.0193458 0)
(1.1022 0.0257315 0)
(1.09833 0.0325299 0)
(1.09166 0.0392557 0)
(1.08242 0.0457196 0)
(1.0704 0.0507409 0)
(1.05559 0.052997 0)
(1.0402 0.0511038 0)
(1.02765 0.0458332 0)
(1.01865 0.0392893 0)
(1.01235 0.0325493 0)
(1.00795 0.0261454 0)
(1.00339 0.0202717 0)
(0.985993 0.0147371 0)
(0.901126 0.00966444 0)
(0.643379 0.00464305 0)
(0.213817 0.00114097 0)
(0.347341 0.00315484 0)
(0.828004 0.0112116 0)
(1.05376 0.019498 0)
(1.11093 0.0270176 0)
(1.11609 0.034404 0)
(1.11029 0.0427365 0)
(1.10123 0.0511243 0)
(1.08919 0.0586822 0)
(1.07389 0.0642801 0)
(1.05556 0.0662596 0)
(1.03684 0.0632815 0)
(1.02168 0.0564793 0)
(1.01079 0.0482755 0)
(1.00312 0.0399542 0)
(0.997682 0.0321032 0)
(0.99219 0.0250823 0)
(0.973792 0.0189138 0)
(0.887491 0.0127138 0)
(0.628251 0.00613587 0)
(0.202875 0.00138003 0)
(0.376065 0.0043734 0)
(0.864154 0.0132387 0)
(1.07951 0.0254668 0)
(1.13121 0.0350337 0)
(1.1341 0.0462725 0)
(1.12505 0.0569752 0)
(1.11264 0.0671047 0)
(1.09666 0.0758706 0)
(1.07722 0.0817883 0)
(1.0546 0.0830729 0)
(1.03193 0.0785594 0)
(1.01367 0.0698843 0)
(1.00048 0.059885 0)
(0.991042 0.0498597 0)
(0.984261 0.0404408 0)
(0.977561 0.0315383 0)
(0.956657 0.0230051 0)
(0.865068 0.0150762 0)
(0.6026 0.00697116 0)
(0.187896 0.00156595 0)
(0.411759 0.00862937 0)
(0.905951 0.0235224 0)
(1.11302 0.0376249 0)
(1.15742 0.0507622 0)
(1.15558 0.0642376 0)
(1.14233 0.0768824 0)
(1.1252 0.0885471 0)
(1.10437 0.0978008 0)
(1.08002 0.103094 0)
(1.05253 0.102944 0)
(1.02564 0.0962563 0)
(1.0042 0.0851954 0)
(0.988723 0.0729649 0)
(0.977559 0.0608561 0)
(0.969279 0.0493831 0)
(0.961012 0.0391383 0)
(0.938127 0.0296417 0)
(0.844841 0.0199633 0)
(0.581664 0.00962434 0)
(0.174346 0.00174913 0)
(0.497409 0.0122176 0)
(0.978282 0.0327408 0)
(1.1571 0.0568048 0)
(1.18918 0.0731147 0)
(1.18132 0.0906955 6.51584e-35)
(1.1615 0.105179 -4.5601e-35)
(1.13839 0.117229 0)
(1.11183 0.1257 0)
(1.08181 0.12951 0)
(1.04909 0.126998 0)
(1.01772 0.117437 0)
(0.992835 0.103677 0)
(0.974654 0.0891986 0)
(0.961256 0.0752836 0)
(0.951108 0.06232 0)
(0.940676 0.0498652 0)
(0.913393 0.0378999 0)
(0.809301 0.0256075 0)
(0.533735 0.0110708 0)
(0.147386 0.00166681 0)
(0.559068 0.0276637 -8.54331e-21)
(1.0602 0.0578493 5.77071e-21)
(1.2065 0.0887843 0)
(1.22507 0.109382 4.99719e-22)
(1.20748 0.129903 -4.0472e-22)
(1.18055 0.14335 4.81105e-35)
(1.15089 0.154126 0)
(1.11777 0.16105 4.588e-21)
(1.08152 0.1627 -1.65028e-20)
(1.04281 0.157296 3.66354e-21)
(1.00612 0.144668 0)
(0.976939 0.128131 -1.21483e-20)
(0.955242 0.111292 -1.52568e-20)
(0.938767 0.0950642 2.68471e-20)
(0.925662 0.079882 -2.16108e-20)
(0.911709 0.0660199 0)
(0.877748 0.0513779 -8.3568e-21)
(0.761845 0.035321 0)
(0.491075 0.0202684 -4.52527e-20)
(0.130287 0.00347134 5.37974e-20)
(0.579698 0.0540532 -2.84025e-22)
(1.10461 0.104166 -4.8885e-20)
(1.24779 0.141248 1.26705e-20)
(1.25778 0.15971 1.88725e-20)
(1.23123 0.177827 -2.39996e-23)
(1.19754 0.188941 7.24356e-22)
(1.16098 0.198299 0)
(1.1211 0.203395 0)
(1.07856 0.202652 2.56808e-20)
(1.0335 0.194705 0)
(0.990921 0.179505 4.14657e-20)
(0.956613 0.160867 1.30329e-20)
(0.93038 0.142674 4.03663e-22)
(0.909693 0.125853 -3.01225e-20)
(0.89251 0.110323 0)
(0.874607 0.0960583 0)
(0.839317 0.0827617 -1.41936e-19)
(0.732836 0.0653947 3.58078e-19)
(0.479571 0.0385224 -2.12695e-19)
(0.132886 0.0127909 -2.5442e-19)
(0.580279 0.08628 8.3872e-20)
(1.13108 0.164513 -2.44217e-20)
(1.27846 0.20713 -6.45946e-21)
(1.28429 0.220729 -3.60528e-20)
(1.25089 0.233861 1.35668e-20)
(1.21076 0.241185 3.63894e-21)
(1.16766 0.247538 2.83776e-21)
(1.12178 0.249406 0)
(1.07332 0.245505 -5.27955e-20)
(1.02216 0.234603 5.97775e-20)
(0.973832 0.216783 -1.13353e-19)
(0.934569 0.196669 5.54113e-20)
(0.904277 0.178062 -4.1274e-20)
(0.880053 0.161497 9.02739e-20)
(0.859834 0.147219 0)
(0.83988 0.133784 -3.56135e-20)
(0.805349 0.120782 0)
(0.708259 0.101606 2.05631e-19)
(0.477833 0.0657202 -4.88038e-19)
(0.146595 0.0220472 3.06704e-19)
(0.565043 0.116934 -3.89681e-19)
(1.14263 0.226046 1.5574e-19)
(1.29717 0.277606 2.48191e-20)
(1.30218 0.28607 0)
(1.26393 0.294719 2.03052e-20)
(1.21885 0.297948 -2.22578e-20)
(1.17059 0.300136 -2.74649e-21)
(1.11969 0.29796 0)
(1.0658 0.290566 3.71528e-20)
(1.00929 0.276505 -4.09455e-20)
(0.956201 0.256147 9.91771e-20)
(0.91311 0.23443 0)
(0.879637 0.215036 -8.66186e-20)
(0.852976 0.198282 4.77961e-20)
(0.831371 0.18426 1.30129e-19)
(0.81148 0.17183 -1.14377e-19)
(0.779534 0.157765 1.90452e-19)
(0.692717 0.136945 -4.24302e-19)
(0.479098 0.0926612 2.69891e-19)
(0.155112 0.0319032 -3.39815e-19)
(0.544536 0.141817 2.3829e-19)
(1.14105 0.28242 -1.75511e-19)
(1.30596 0.346065 7.76092e-20)
(1.31167 0.351689 -1.07365e-19)
(1.26994 0.35719 7.28651e-20)
(1.22153 0.356328 -1.2503e-20)
(1.16959 0.354195 3.77429e-21)
(1.11452 0.347859 -2.21203e-20)
(1.05596 0.336809 -3.6485e-20)
(0.994807 0.319142 -8.73171e-20)
(0.937263 0.295571 -2.13621e-19)
(0.890978 0.271914 -7.22198e-20)
(0.856387 0.251798 2.84369e-21)
(0.829691 0.234504 -1.71048e-19)
(0.807984 0.219865 -6.23064e-21)
(0.788565 0.208418 1.67257e-19)
(0.759606 0.19323 -5.20467e-20)
(0.679914 0.171667 -3.07151e-20)
(0.476487 0.117907 0)
(0.157515 0.0408284 7.23444e-19)
(0.524181 0.164843 0)
(1.13164 0.334951 5.38525e-20)
(1.30712 0.410552 0)
(1.31398 0.415246 -1.20465e-20)
(1.26988 0.418907 -8.79679e-20)
(1.21944 0.414323 2.01731e-20)
(1.16494 0.408174 -8.94188e-22)
(1.10662 0.397928 4.04982e-20)
(1.04459 0.383161 -2.19773e-20)
(0.980238 0.36173 3.81582e-20)
(0.920555 0.335174 1.15027e-19)
(0.873509 0.309117 1.59966e-19)
(0.837328 0.286833 -9.99303e-20)
(0.809054 0.268536 1.85202e-19)
(0.787115 0.253154 -1.48865e-19)
(0.767777 0.241979 0)
(0.740802 0.226102 -3.98757e-19)
(0.665156 0.202661 5.36115e-19)
(0.469792 0.140114 4.07763e-20)
(0.155735 0.0482839 -7.6075e-19)
(0.506543 0.186103 -6.10306e-21)
(1.11995 0.385207 -1.42666e-19)
(1.30281 0.472015 -4.23915e-19)
(1.31097 0.476073 2.34337e-19)
(1.26514 0.47836 -5.25867e-20)
(1.21359 0.470523 2.93961e-20)
(1.15734 0.460933 -1.50218e-20)
(1.09657 0.447214 -1.24033e-21)
(1.03193 0.428895 -7.52742e-20)
(0.964486 0.403808 1.15592e-21)
(0.901094 0.373502 -1.24765e-19)
(0.85054 0.34447 -1.69916e-19)
(0.814463 0.320845 1.12779e-19)
(0.787729 0.301332 -6.64581e-20)
(0.766094 0.2852 1.61976e-19)
(0.747125 0.272823 0)
(0.722154 0.256789 -2.47003e-19)
(0.649324 0.22951 3.65494e-19)
(0.458676 0.159758 7.03094e-19)
(0.151811 0.0539966 -8.22965e-19)
(0.49195 0.205599 -6.97773e-19)
(1.10556 0.43265 3.523e-19)
(1.29477 0.530947 2.72453e-19)
(1.30402 0.534109 -2.53707e-19)
(1.25697 0.53492 1.10664e-20)
(1.20489 0.524146 7.76331e-20)
(1.14729 0.511759 1.75399e-21)
(1.08463 0.495051 -1.45231e-20)
(1.01785 0.473358 -4.68498e-20)
(0.947825 0.444551 8.34865e-20)
(0.883102 0.410848 1.16978e-19)
(0.833516 0.37924 2.66087e-19)
(0.795325 0.352623 0)
(0.765861 0.331425 5.4117e-21)
(0.744246 0.313482 -4.51083e-19)
(0.725894 0.300542 1.03507e-19)
(0.701641 0.283545 5.30367e-19)
(0.631546 0.252773 -1.54976e-19)
(0.445336 0.175993 3.34903e-19)
(0.146538 0.0587947 -2.72241e-20)
(0.481472 0.224199 6.83647e-21)
(1.09178 0.477775 3.25414e-19)
(1.28439 0.587156 2.06474e-19)
(1.29456 0.589412 -4.51009e-19)
(1.24658 0.588477 2.89445e-19)
(1.19405 0.574894 -9.49168e-20)
(1.13529 0.560177 -5.3745e-21)
(1.07111 0.540896 2.76305e-20)
(1.00267 0.516155 8.1238e-20)
(0.930409 0.484246 -1.08897e-19)
(0.862598 0.447217 0)
(0.808399 0.411434 -1.05611e-19)
(0.770867 0.382674 1.21251e-19)
(0.74392 0.359335 1.64238e-19)
(0.72275 0.341349 -9.42e-20)
(0.704607 0.325415 -2.38506e-19)
(0.681072 0.307351 -7.26444e-20)
(0.612363 0.273617 -1.28059e-21)
(0.43065 0.189701 0)
(0.140188 0.062651 0)
(0.472922 0.242099 -3.43399e-19)
(1.07809 0.520135 0)
(1.27259 0.639901 2.36496e-19)
(1.28352 0.64225 -1.08796e-19)
(1.23496 0.639458 -3.02117e-19)
(1.18192 0.623063 8.31758e-20)
(1.12198 0.606143 -1.18269e-20)
(1.05646 0.58457 -9.96568e-21)
(0.986319 0.557236 4.847e-20)
(0.911386 0.522504 -4.61461e-20)
(0.841198 0.481407 6.54799e-20)
(0.788048 0.44375 3.29115e-19)
(0.749005 0.411962 1.32496e-20)
(0.719931 0.38618 -1.67347e-19)
(0.699042 0.364001 3.24844e-19)
(0.682494 0.348195 4.4728e-21)
(0.660681 0.329328 7.7721e-20)
(0.594078 0.291534 -3.80133e-19)
(0.414881 0.201109 3.86796e-19)
(0.133089 0.0652714 -4.60137e-19)
(0.467061 0.262374 3.17881e-23)
(1.06551 0.560169 0)
(1.25994 0.688986 0)
(1.27134 0.692173 1.01762e-19)
(1.22245 0.687832 1.18127e-19)
(1.169 0.668907 -7.07052e-20)
(1.10799 0.649896 4.94551e-20)
(1.04137 0.626223 0)
(0.969826 0.596597 -8.12381e-20)
(0.893248 0.559175 1.59291e-19)
(0.821877 0.516146 2.01126e-19)
(0.765765 0.47379 -1.2453e-19)
(0.725866 0.438454 -1.5693e-19)
(0.698103 0.410395 3.71549e-19)
(0.677584 0.388793 -1.14918e-19)
(0.659784 0.36902 -1.39789e-19)
(0.636212 0.346679 -8.58454e-20)
(0.570516 0.306544 -4.12932e-19)
(0.397903 0.20986 5.73468e-20)
(0.124846 0.0669591 5.00418e-19)
(0.463374 0.28147 -1.37282e-19)
(1.05373 0.597755 -2.15599e-19)
(1.2465 0.73463 2.39012e-20)
(1.25847 0.73897 3.07549e-22)
(1.20951 0.733521 4.02195e-20)
(1.15578 0.712457 -1.87507e-19)
(1.09392 0.691549 0)
(1.02643 0.665898 9.90752e-21)
(0.95353 0.634158 -7.81235e-21)
(0.874893 0.594723 2.48157e-19)
(0.799791 0.54774 -5.15815e-20)
(0.741081 0.502292 5.64964e-20)
(0.7 0.464569 0)
(0.670068 0.432444 -2.03071e-19)
(0.650078 0.40631 2.54208e-19)
(0.63612 0.385948 0)
(0.616748 0.363924 -1.88735e-19)
(0.552297 0.320092 5.51562e-19)
(0.379989 0.216508 6.61413e-20)
(0.116085 0.0671886 -6.21249e-19)
(0.460823 0.29881 -3.04486e-19)
(1.04249 0.633087 3.88894e-19)
(1.2327 0.777091 0)
(1.24498 0.782478 2.52953e-19)
(1.19597 0.776161 0)
(1.14222 0.753488 1.76859e-19)
(1.0798 0.73104 0)
(1.01168 0.70366 0)
(0.937329 0.670245 -2.88292e-20)
(0.856334 0.628953 -2.42934e-19)
(0.779037 0.579782 -3.74135e-19)
(0.719645 0.532507 7.21657e-20)
(0.678194 0.490311 2.71367e-19)
(0.651273 0.456391 2.29374e-19)
(0.629796 0.428087 -8.16249e-19)
(0.611632 0.403481 -3.38724e-19)
(0.588141 0.37775 1.96729e-19)
(0.524535 0.328815 0)
(0.360745 0.220535 5.7297e-19)
(0.106344 0.0663315 -6.75277e-19)
(0.458728 0.314892 3.3595e-19)
(1.03134 0.666136 -4.27119e-19)
(1.21889 0.816539 0)
(1.23155 0.823001 -9.84928e-21)
(1.18245 0.815972 -1.04316e-19)
(1.1287 0.791935 0)
(1.06583 0.768271 -1.63965e-20)
(0.997123 0.73946 1.74425e-20)
(0.921482 0.704662 -3.22087e-20)
(0.838852 0.661839 2.2477e-20)
(0.759691 0.610883 0)
(0.695301 0.559063 2.86748e-19)
(0.647935 0.513562 3.75179e-21)
(0.613957 0.473128 1.24833e-19)
(0.596499 0.440568 1.50687e-19)
(0.585233 0.417201 0)
(0.568409 0.386156 -3.34632e-19)
(0.504888 0.336884 6.56048e-19)
(0.340863 0.22228 -7.0122e-19)
(0.096556 0.0641099 1.47028e-18)
(0.456806 0.330156 0)
(1.0209 0.697752 0)
(1.20542 0.853422 -2.33352e-19)
(1.21807 0.860795 0)
(1.16872 0.853031 0)
(1.11509 0.82784 2.52389e-19)
(1.05194 0.803214 -2.04048e-20)
(0.982956 0.773238 1.66017e-20)
(0.906339 0.737399 -3.1533e-22)
(0.82191 0.693577 0)
(0.738423 0.641162 -6.04083e-20)
(0.67196 0.588165 -2.38197e-19)
(0.626726 0.540256 -3.00878e-19)
(0.598219 0.498101 -1.25592e-19)
(0.575719 0.463625 1.66483e-19)
(0.55883 0.426592 -3.96038e-19)
(0.535557 0.398766 7.25965e-19)
(0.474838 0.341354 9.16489e-21)
(0.319502 0.221602 -6.79106e-19)
(0.0861024 0.06068 -1.00943e-19)
(0.454839 0.344816 0)
(1.01078 0.727351 -3.31502e-19)
(1.19242 0.887793 2.60986e-19)
(1.20503 0.896151 0)
(1.15549 0.887744 0)
(1.10193 0.861419 -5.5721e-19)
(1.03855 0.835981 0)
(0.969227 0.804996 0)
(0.891548 0.768467 -4.71429e-20)
(0.805283 0.723903 4.63654e-20)
(0.71965 0.669667 -4.7363e-19)
(0.649764 0.613141 0)
(0.596885 0.559859 -3.26542e-19)
(0.557217 0.512711 1.19275e-20)
(0.53691 0.466545 -5.31817e-19)
(0.527099 0.438371 2.14963e-19)
(0.514433 0.39893 4.66512e-21)
(0.453936 0.340552 -7.80674e-19)
(0.29949 0.217712 3.70773e-19)
(0.0782093 0.0566763 1.07997e-19)
(0.452865 0.358763 0)
(1.00153 0.755733 -3.91179e-19)
(1.17982 0.920097 2.77092e-19)
(1.1921 0.929221 5.84979e-19)
(1.14239 0.920135 1.20064e-19)
(1.08904 0.892827 -8.4587e-20)
(1.02553 0.866684 5.30324e-20)
(0.95604 0.834915 -1.17013e-19)
(0.877509 0.797903 5.04293e-20)
(0.789704 0.753051 2.70431e-19)
(0.701389 0.69894 3.927e-19)
(0.626118 0.642833 7.65369e-20)
(0.571772 0.589468 4.74913e-19)
(0.538963 0.535965 3.10483e-19)
(0.514371 0.492358 3.84326e-19)
(0.497482 0.444967 -2.41626e-19)
(0.477607 0.404981 -2.88936e-19)
(0.421395 0.338414 3.40648e-19)
(0.275488 0.211014 -2.02927e-19)
(0.0719396 0.0523057 3.54306e-19)
(0.450702 0.37202 5.20212e-19)
(0.992403 0.781917 6.20983e-19)
(1.16763 0.95015 1.51741e-19)
(1.1797 0.96012 1.60077e-20)
(1.12998 0.950468 -4.15389e-19)
(1.07683 0.922227 1.61095e-19)
(1.01323 0.89548 -6.04939e-20)
(0.943576 0.863068 -2.16438e-20)
(0.86438 0.825788 -3.53548e-20)
(0.775097 0.780855 -3.04112e-19)
(0.683431 0.726513 2.28487e-20)
(0.60426 0.668671 0)
(0.542767 0.612123 0)
(0.493741 0.556331 -1.57257e-19)
(0.466754 0.498898 -6.31162e-19)
(0.457309 0.449701 5.24217e-19)
(0.448803 0.390112 3.23209e-19)
(0.402034 0.320035 0)
(0.268217 0.189112 6.46277e-19)
(0.0659999 0.0371519 -3.86747e-19)
(0.448546 0.384342 -2.78323e-19)
(0.983897 0.806884 2.37912e-19)
(1.15575 0.978346 -3.39152e-19)
(1.1675 0.988932 -3.66737e-19)
(1.11782 0.978679 -1.6349e-19)
(1.06499 0.949685 3.8463e-20)
(1.00148 0.922457 0)
(0.931819 0.889494 1.67386e-19)
(0.852136 0.852096 8.82286e-21)
(0.761533 0.807348 0)
(0.667274 0.753963 0)
(0.584476 0.697389 5.40522e-20)
(0.51787 0.638845 8.41609e-20)
(0.474185 0.579475 -1.69285e-19)
(0.440016 0.523111 4.56758e-19)
(0.416852 0.451911 -5.76393e-19)
(0.400794 0.390446 -6.98177e-19)
(0.370295 0.300785 6.23184e-19)
(0.279396 0.191859 -2.33517e-19)
(0.138345 0.104419 1.33621e-19)
(0.445984 0.395839 3.21425e-19)
(0.975317 0.829663 0)
(1.14425 1.00446 0)
(1.15587 1.01576 -1.23929e-19)
(1.10637 1.00501 1.00288e-19)
(1.05384 0.975306 -2.07506e-20)
(0.990419 0.947636 -2.32215e-19)
(0.92074 0.914278 -2.50129e-19)
(0.840487 0.876938 9.40354e-21)
(0.748825 0.83247 -2.48774e-20)
(0.651807 0.779824 6.15811e-20)
(0.564446 0.722319 -4.39784e-19)
(0.494115 0.664759 -4.90142e-19)
(0.428144 0.606746 -9.00748e-20)
(0.383289 0.532642 0)
(0.360535 0.468406 -1.3637e-20)
(0.351306 0.357163 3.80711e-19)
(0.323733 0.212602 -6.5807e-19)
(0.297178 0.0412082 4.85455e-19)
(0.0920864 -0.0684177 3.87862e-19)
(0.44344 0.406852 -6.98956e-19)
(0.967264 0.851465 -2.98343e-19)
(1.13305 1.02906 5.49825e-21)
(1.1444 1.0409 1.56786e-19)
(1.09506 1.02967 0)
(1.04285 0.999484 4.77534e-19)
(0.97965 0.971594 2.90316e-19)
(0.910074 0.938088 -4.71355e-20)
(0.829522 0.900867 1.00773e-20)
(0.73642 0.857447 -2.31448e-20)
(0.636943 0.806813 2.14975e-20)
(0.545218 0.75346 3.89098e-19)
(0.463648 0.696543 4.79357e-19)
(0.407761 0.630644 8.6433e-20)
(0.357831 0.573064 4.79443e-19)
(0.302337 0.479202 0)
(0.213267 0.367288 0)
(0.0789699 0.343868 4.87917e-19)
(-0.0490249 0.635514 -3.2051e-20)
(-0.00318267 1.46174 -6.31517e-19)
(0.440555 0.417336 3.78419e-19)
(0.959201 0.871459 8.93959e-19)
(1.12217 1.05205 -1.34235e-18)
(1.1334 1.06466 8.11415e-19)
(1.08425 1.05314 -9.60791e-20)
(1.03233 1.02262 6.21162e-19)
(0.969294 0.994656 0)
(0.899793 0.961181 2.55519e-19)
(0.818969 0.924655 0)
(0.725307 0.882402 1.96073e-19)
(0.624339 0.83272 -3.5381e-20)
(0.528744 0.779635 3.96709e-20)
(0.448485 0.726755 5.28252e-19)
(0.359023 0.67436 -1.96144e-19)
(0.274462 0.603411 -2.52803e-19)
(0.205466 0.547852 0)
(0.113197 0.631662 0)
(0.0539315 1.19236 0)
(0.0868927 2.39596 -2.75268e-19)
(0.119253 2.878 -1.70449e-19)
(0.437787 0.427028 0)
(0.951669 0.890578 0)
(1.11164 1.07377 4.7996e-19)
(1.12262 1.08698 -6.76668e-19)
(1.07363 1.07522 4.67315e-19)
(1.02201 1.04458 -5.69745e-19)
(0.959231 1.01674 -3.38441e-20)
(0.889851 0.983584 2.63519e-20)
(0.808897 0.94796 2.21286e-21)
(0.714158 0.906991 -2.22255e-19)
(0.609912 0.860396 5.23114e-20)
(0.510916 0.814411 3.61493e-19)
(0.413529 0.766651 -5.20091e-19)
(0.342997 0.706081 -6.08765e-19)
(0.278952 0.668191 2.13793e-19)
(0.214851 0.779384 0)
(0.160173 1.44653 3.07031e-19)
(0.162887 2.64794 3.51242e-19)
(0.164126 3.07287 -3.92982e-19)
(0.15547 3.21637 4.42889e-19)
(0.434819 0.435664 0)
(0.944089 0.9079 7.25618e-19)
(1.10145 1.09401 -1.24496e-19)
(1.11235 1.10804 8.50411e-19)
(1.06357 1.09619 -4.90514e-19)
(1.01222 1.06551 0)
(0.949677 1.03789 0)
(0.880578 1.00525 0)
(0.799626 0.970545 -1.02751e-19)
(0.704443 0.931641 -6.39061e-22)
(0.599447 0.88838 0)
(0.495073 0.844593 -3.51786e-19)
(0.407834 0.801363 0)
(0.295291 0.766018 4.32576e-19)
(0.224631 0.842895 -2.79875e-19)
(0.181616 1.41201 -2.34866e-19)
(0.196964 2.63817 -5.7819e-19)
(0.216715 3.12266 -2.8544e-19)
(0.20484 3.27566 -3.18406e-19)
(0.189365 3.31813 2.84783e-19)
(0.431975 0.443752 -2.45226e-19)
(0.936979 0.924437 1.44833e-20)
(1.09166 1.11313 -1.34078e-19)
(1.10235 1.12782 -6.81049e-19)
(1.05373 1.11592 0)
(1.00271 1.08541 0)
(0.940497 1.05815 0)
(0.871614 1.02608 -1.7816e-20)
(0.790793 0.992737 1.19823e-19)
(0.695375 0.95624 0)
(0.588469 0.916771 0)
(0.486823 0.879718 0)
(0.380668 0.84856 0)
(0.321342 0.844318 2.81418e-19)
(0.298703 1.16772 7.33966e-19)
(0.294945 2.2875 2.28766e-19)
(0.310304 3.07477 4.06213e-19)
(0.300177 3.29712 -2.45892e-19)
(0.246853 3.36884 9.08295e-20)
(0.21175 3.38238 0)
(0.428859 0.451229 2.48363e-19)
(0.929628 0.939812 -1.56331e-18)
(1.08195 1.13145 -4.4169e-19)
(1.09262 1.14703 -1.08106e-19)
(1.04427 1.1352 1.25456e-19)
(0.993516 1.10482 -8.90305e-19)
(0.93159 1.07796 6.078e-20)
(0.863103 1.04667 4.38025e-19)
(0.782594 1.01473 0)
(0.687212 0.980531 -1.24188e-20)
(0.580742 0.94498 1.12975e-20)
(0.470421 0.910576 0)
(0.379918 0.886153 0)
(0.326152 1.00455 -3.48149e-19)
(0.317846 1.78725 -7.55544e-21)
(0.315659 2.90048 -1.11929e-19)
(0.333579 3.29594 1.65713e-19)
(0.305087 3.40806 2.89854e-20)
(0.23562 3.43815 1.71216e-19)
(0.20807 3.44677 -8.7079e-20)
(0.425426 0.458759 4.78096e-19)
(0.922036 0.955881 1.49446e-18)
(1.07179 1.15027 5.43412e-19)
(1.08232 1.16649 0)
(1.03426 1.15463 0)
(0.983938 1.12448 6.82123e-19)
(0.922529 1.09797 -4.2783e-19)
(0.854582 1.0674 -4.02202e-19)
(0.774604 1.03676 -1.64478e-20)
(0.679517 1.00518 -1.18958e-20)
(0.571826 0.973882 -2.23959e-19)
(0.4684 0.94602 0)
(0.390488 0.959504 0)
(0.373062 1.31955 -1.89717e-19)
(0.383647 2.36666 -2.44305e-19)
(0.428197 3.19208 0)
(0.458227 3.39758 1.46249e-19)
(0.387464 3.46931 2.39251e-19)
(0.306612 3.51315 -5.5546e-19)
(0.278409 3.53953 3.16938e-19)
(0.421223 0.466208 -9.06565e-19)
(0.913325 0.972094 -7.1082e-19)
(1.06062 1.16984 0)
(1.07135 1.18687 0)
(1.0238 1.17495 0)
(0.973887 1.14474 0)
(0.913058 1.11846 4.57383e-19)
(0.845815 1.08848 -5.13223e-19)
(0.766624 1.05933 0)
(0.672706 1.03033 1.69245e-20)
(0.567611 1.00394 3.60539e-19)
(0.45976 0.985845 2.0255e-20)
(0.399779 1.06446 3.62952e-20)
(0.419549 1.65298 2.73742e-19)
(0.464722 2.83474 -5.57009e-20)
(0.502123 3.33298 0)
(0.484195 3.4753 -1.00039e-19)
(0.388165 3.5658 1.1058e-19)
(0.290153 3.64669 3.884e-19)
(0.210642 3.6316 -3.44693e-19)
(0.416477 0.473937 4.29536e-19)
(0.903904 0.989565 -6.97785e-19)
(1.04851 1.19039 0)
(1.05934 1.20785 -1.7401e-19)
(1.01224 1.19567 6.61931e-19)
(0.962998 1.1655 0)
(0.902993 1.13934 0)
(0.836756 1.11002 9.58357e-19)
(0.758766 1.08206 1.82313e-20)
(0.665563 1.05535 -1.2945e-19)
(0.559711 1.03315 -1.46234e-19)
(0.46732 1.02673 1.28679e-19)
(0.439261 1.2074 0)
(0.486011 2.05343 -1.2475e-19)
(0.537588 3.1056 1.10017e-19)
(0.5972 3.44266 -6.41732e-20)
(0.593808 3.56053 0)
(0.510803 3.67984 -2.29344e-19)