/*--------------------------------*- C++ -*----------------------------------*\
| =========                 |                                                 |
| \\      /  F ield         | OpenFOAM: The Open Source CFD Toolbox           |
|  \\    /   O peration     | Version:  v2012                                 |
|   \\  /    A nd           | Website:  www.openfoam.com                      |
|    \\/     M anipulation  |                                                 |
\*---------------------------------------------------------------------------*/
FoamFile
{
    version     2.0;
    format      ascii;
    class       volScalarField;
    location    "21";
    object      p;
}
// * * * * * * * * * * * * * * * * * * * * * * * * * * * * * * * * * * * * * //

dimensions      [0 2 -2 0 0 0 0];


internalField   nonuniform List<scalar> 
2200
(
0.3979
0.376408
0.360512
0.344855
0.330274
0.317786
0.307444
0.299336
0.293592
0.290613
0.29091
0.294439
0.300592
0.308987
0.319533
0.33217
0.346849
0.362573
0.37851
0.40002
0.330286
0.327031
0.324126
0.320045
0.314626
0.308191
0.301616
0.295672
0.29112
0.288651
0.288957
0.292016
0.296982
0.303242
0.310038
0.316625
0.322156
0.326303
0.329244
0.332521
0.290367
0.290603
0.292693
0.294063
0.294478
0.29366
0.291722
0.289101
0.28658
0.284953
0.285315
0.287551
0.290537
0.293499
0.295682
0.29667
0.29638
0.295125
0.293129
0.29291
0.267879
0.269356
0.271987
0.274468
0.276949
0.279019
0.280167
0.280383
0.279989
0.279554
0.279959
0.281084
0.282013
0.282193
0.281338
0.279482
0.277153
0.274791
0.272224
0.270767
0.253461
0.25542
0.258306
0.261247
0.264201
0.267088
0.269575
0.271443
0.272563
0.273145
0.273625
0.273868
0.273374
0.271964
0.269821
0.267182
0.264396
0.261553
0.258731
0.25679
0.246283
0.247834
0.250095
0.252735
0.255487
0.258201
0.26083
0.263321
0.265333
0.266689
0.267256
0.266893
0.265641
0.263716
0.261486
0.259068
0.25653
0.254029
0.251845
0.250302
0.243358
0.244359
0.245672
0.247589
0.249779
0.251959
0.254075
0.256263
0.258392
0.260124
0.260785
0.260251
0.259051
0.257562
0.255934
0.254125
0.2522
0.250467
0.249246
0.248245
0.241077
0.241736
0.242486
0.243995
0.245812
0.247617
0.249335
0.251047
0.252785
0.254347
0.255177
0.25509
0.254493
0.253619
0.252523
0.251144
0.249645
0.248344
0.247697
0.247037
0.238201
0.238543
0.239146
0.240656
0.242439
0.244264
0.246033
0.247678
0.249225
0.250614
0.251672
0.252111
0.25196
0.251362
0.250328
0.249036
0.247624
0.246367
0.245869
0.245524
0.235345
0.235467
0.236003
0.237385
0.239036
0.240843
0.24275
0.244641
0.24641
0.24798
0.24927
0.24993
0.249838
0.249228
0.248261
0.247162
0.245969
0.244902
0.244498
0.244377
0.232812
0.232794
0.233206
0.234153
0.235359
0.2368
0.238491
0.240413
0.242462
0.24447
0.246079
0.246933
0.247014
0.246684
0.246189
0.245524
0.244843
0.244254
0.244017
0.244004
0.229868
0.229808
0.230114
0.230708
0.231574
0.232677
0.233999
0.23567
0.237702
0.239995
0.242051
0.24343
0.244216
0.24449
0.244466
0.244322
0.244173
0.244011
0.24392
0.243921
0.226487
0.226423
0.226684
0.227178
0.228
0.229053
0.230347
0.232011
0.234057
0.236535
0.239046
0.241013
0.242385
0.243177
0.243585
0.243832
0.243912
0.24391
0.243887
0.243889
0.222724
0.222704
0.22296
0.223475
0.224382
0.225573
0.227117
0.229094
0.231512
0.23445
0.237502
0.239934
0.241629
0.242793
0.243577
0.244027
0.244207
0.244285
0.244306
0.244308
0.218361
0.218355
0.218578
0.219126
0.220044
0.221322
0.223089
0.225431
0.228415
0.232103
0.235973
0.239099
0.241282
0.242836
0.243917
0.244585
0.244969
0.245189
0.245267
0.245258
0.21301
0.212985
0.213242
0.213835
0.214788
0.21614
0.218079
0.220746
0.224314
0.228867
0.23379
0.237874
0.240826
0.242913
0.244405
0.245402
0.24606
0.246464
0.246623
0.246604
0.206693
0.206655
0.206945
0.207583
0.208666
0.210276
0.212578
0.215755
0.220054
0.225612
0.231744
0.236945
0.240787
0.243535
0.245504
0.246843
0.247726
0.24824
0.248449
0.24842
0.1991
0.199066
0.199439
0.200279
0.201668
0.203711
0.206605
0.210601
0.21596
0.222851
0.230428
0.236893
0.241658
0.245074
0.24747
0.249096
0.250168
0.25079
0.251052
0.25102
0.190189
0.190138
0.190594
0.191658
0.19342
0.196013
0.199684
0.204734
0.21149
0.22012
0.229495
0.237436
0.243262
0.247439
0.250375
0.252386
0.253696
0.254443
0.25475
0.254704
0.179277
0.179239
0.179859
0.181241
0.183485
0.186764
0.191412
0.197826
0.206353
0.21715
0.228756
0.238499
0.245642
0.250765
0.254345
0.256802
0.258418
0.259348
0.259733
0.259674
0.166124
0.166041
0.166814
0.16856
0.171438
0.175679
0.181674
0.189866
0.200642
0.214103
0.228367
0.240244
0.248936
0.255169
0.25956
0.262589
0.264585
0.265731
0.266182
0.266097
0.149594
0.149589
0.150699
0.153002
0.156798
0.162397
0.170214
0.180786
0.19445
0.211159
0.228569
0.242941
0.253446
0.260984
0.266293
0.269962
0.272374
0.273748
0.274301
0.274202
0.12869
0.128634
0.130148
0.133398
0.138642
0.14626
0.156722
0.170528
0.187845
0.208471
0.229542
0.246748
0.259284
0.268306
0.274707
0.279169
0.282152
0.283864
0.28451
0.284349
0.101193
0.101452
0.10387
0.108574
0.116072
0.126829
0.141038
0.159046
0.18087
0.206115
0.231332
0.251697
0.266513
0.277231
0.284941
0.29038
0.294
0.296034
0.296812
0.296622
0.0644877
0.0650057
0.0690401
0.0767762
0.0882278
0.103768
0.123069
0.146475
0.173739
0.204279
0.234105
0.257923
0.275248
0.287859
0.29701
0.303591
0.308118
0.310742
0.311695
0.311357
0.0152432
0.0158223
0.023489
0.0367502
0.0547732
0.0770335
0.103181
0.133286
0.166875
0.203328
0.238083
0.265499
0.285441
0.300108
0.31096
0.318932
0.32449
0.32761
0.328562
0.328128
-0.0514146
-0.0480588
-0.0316163
-0.00921112
0.0175963
0.0481767
0.0822739
0.119837
0.160453
0.203552
0.243899
0.275679
0.299107
0.316638
0.329906
0.340019
0.347524
0.351728
0.352851
0.352625
-0.128989
-0.117301
-0.0892052
-0.0568412
-0.0203713
0.0190144
0.0612536
0.106545
0.154575
0.204769
0.251475
0.28844
0.315967
0.337058
0.353528
0.366439
0.37662
0.38296
0.385711
0.386111
-0.195226
-0.178604
-0.143369
-0.102725
-0.0572674
-0.00939259
0.0409587
0.0940088
0.149326
0.206361
0.259014
0.300587
0.331666
0.355626
0.374505
0.389376
0.400802
0.408513
0.411536
0.411703
-0.244407
-0.22982
-0.1895
-0.143185
-0.0908277
-0.0358464
0.0218305
0.0820265
0.144083
0.207475
0.26554
0.311121
0.34511
0.371055
0.391326
0.407118
0.419282
0.426886
0.429955
0.430286
-0.284883
-0.27111
-0.227735
-0.177896
-0.120391
-0.0597286
0.00409987
0.0704659
0.138603
0.207971
0.271098
0.320217
0.356221
0.383288
0.403956
0.419889
0.431979
0.439861
0.443202
0.443563
-0.319683
-0.305663
-0.260134
-0.2079
-0.146365
-0.0811717
-0.0122907
0.0593766
0.133012
0.207769
0.275221
0.326827
0.36418
0.391903
0.413042
0.429307
0.441598
0.449654
0.453187
0.453529
-0.350179
-0.336104
-0.288703
-0.234222
-0.169401
-0.100592
-0.0275337
0.0486969
0.12715
0.206509
0.277667
0.331769
0.370578
0.399181
0.420565
0.436881
0.449287
0.457443
0.461078
0.46118
-0.377716
-0.363694
-0.314557
-0.257748
-0.190138
-0.118445
-0.0419184
0.0382028
0.1208
0.204381
0.279327
0.336083
0.376175
0.405491
0.427471
0.444017
0.456292
0.464561
0.467797
0.467832
-0.402895
-0.389021
-0.338495
-0.279387
-0.209277
-0.135155
-0.0557169
0.0277391
0.114058
0.201685
0.280462
0.339678
0.38148
0.411786
0.434099
0.450662
0.462844
0.470863
0.474265
0.474416
-0.426672
-0.41245
-0.361063
-0.299937
-0.227486
-0.151133
-0.0691279
0.017248
0.106955
0.198356
0.280885
0.343247
0.387087
0.418126
0.440801
0.457485
0.469638
0.477589
0.480911
0.481124
-0.449003
-0.434557
-0.382605
-0.319832
-0.245313
-0.166784
-0.0823552
0.0066747
0.0994649
0.194552
0.281044
0.346582
0.39193
0.424202
0.447506
0.464484
0.476703
0.484383
0.487834
0.488049
-0.470053
-0.455678
-0.403263
-0.339181
-0.262975
-0.182371
-0.0956151
-0.00410179
0.091565
0.190203
0.280539
0.349047
0.396919
0.430582
0.454519
0.471697
0.48404
0.491759
0.495004
0.495166
-0.490373
-0.475872
-0.423151
-0.358001
-0.280458
-0.197996
-0.109087
-0.0152185
0.0831459
0.184971
0.278922
0.350905
0.401698
0.437123
0.461974
0.479505
0.49177
0.499165
0.502343
0.502455
-0.51044
-0.495337
-0.442333
-0.376247
-0.297671
-0.213658
-0.122853
-0.0268451
0.0739187
0.17855
0.276079
0.352027
0.405909
0.443715
0.469827
0.487753
0.499901
0.507188
0.509992
0.509957
-0.530209
-0.514296
-0.460942
-0.393928
-0.314505
-0.22926
-0.1369
-0.0390686
0.0638129
0.171164
0.2724
0.352321
0.409875
0.450659
0.478539
0.496964
0.508673
0.515052
0.517611
0.517459
-0.549498
-0.532855
-0.479058
-0.411096
-0.330907
-0.244692
-0.151106
-0.0517469
0.0530801
0.163059
0.267654
0.351457
0.413188
0.457441
0.487961
0.507306
0.518363
0.523684
0.525336
0.52496
-0.568135
-0.550977
-0.496703
-0.427807
-0.346874
-0.259842
-0.165253
-0.0646071
0.0419336
0.154019
0.261157
0.348879
0.415023
0.463853
0.49804
0.519676
0.530295
0.532378
0.531793
0.531952
-0.586111
-0.568598
-0.513843
-0.444074
-0.362411
-0.274633
-0.179187
-0.0774818
0.0303965
0.144158
0.253932
0.345728
0.416141
0.469613
0.508536
0.534013
0.545686
0.544509
0.53925
0.536735
-0.603403
-0.585606
-0.53041
-0.459871
-0.377524
-0.289048
-0.192864
-0.0903335
0.0186138
0.133904
0.24578
0.3401
0.414713
0.473941
0.519058
0.550576
0.56769
0.561597
0.554993
0.559885
-0.620026
-0.601946
-0.546324
-0.475135
-0.392195
-0.303097
-0.206285
-0.1031
0.00666017
0.122997
0.236133
0.332629
0.411366
0.475745
0.527681
0.567404
0.594847
0.582078
0.53758
0.490171
-0.635909
-0.617619
-0.561608
-0.489913
-0.40653
-0.31696
-0.219687
-0.116066
-0.00581213
0.111243
0.225493
0.323777
0.405007
0.474109
0.533038
0.583286
0.626061
0.644358
0.666578
0.716898
-0.651016
-0.632684
-0.576345
-0.50432
-0.420691
-0.330876
-0.233395
-0.129604
-0.0191442
0.098212
0.212869
0.311332
0.394087
0.466583
0.528157
0.578996
0.613864
0.624638
0.602008
0.60863
-0.665307
-0.647109
-0.590502
-0.518296
-0.434574
-0.344719
-0.24724
-0.143515
-0.0332294
0.0838404
0.198224
0.296685
0.378242
0.449266
0.508783
0.553432
0.560182
0.523957
0.47048
0.462794
-0.678822
-0.660892
-0.604085
-0.531844
-0.448153
-0.35844
-0.261164
-0.15778
-0.0480015
0.0683992
0.18195
0.278429
0.356556
0.421654
0.473717
0.491913
0.463257
0.395935
0.325715
0.315937
-0.691604
-0.674033
-0.617119
-0.544984
-0.461434
-0.372019
-0.275121
-0.172296
-0.0633863
0.0516656
0.163339
0.25717
0.329022
0.381293
0.409013
0.39992
0.353508
0.253641
0.166894
0.15093
-0.7041
-0.686945
-0.629997
-0.558086
-0.474764
-0.385747
-0.289353
-0.187309
-0.0796053
0.0336565
0.142785
0.232556
0.296797
0.333782
0.327241
0.291204
0.186856
0.0642715
-0.0436686
-0.0662529
-0.717176
-0.700383
-0.643396
-0.571758
-0.488707
-0.4001
-0.304287
-0.203159
-0.096842
0.0141518
0.119812
0.20416
0.262267
0.276059
0.23502
0.146714
-0.0135086
-0.168287
-0.296961
-0.321844
-0.731318
-0.714774
-0.657617
-0.586228
-0.503452
-0.415218
-0.320004
-0.219866
-0.115169
-0.00691382
0.094531
0.172703
0.22002
0.206275
0.140584
-0.0139949
-0.225259
-0.446834
-0.63169
-0.678061
-0.74658
-0.730155
-0.672698
-0.601501
-0.518968
-0.431074
-0.33649
-0.237445
-0.134475
-0.0291731
0.067454
0.139899
0.171663
0.124455
0.023805
-0.180626
-0.431804
-0.740935
-1.07897
-1.22041
-0.763012
-0.746651
-0.68873
-0.617649
-0.535294
-0.44772
-0.353775
-0.255847
-0.154726
-0.0528317
0.0378497
0.104363
0.119922
0.0366144
-0.116936
-0.348998
-0.610917
-0.987031
-1.60956
-2.19981
-0.780605
-0.764248
-0.705749
-0.634702
-0.552418
-0.465112
-0.371789
-0.275054
-0.175867
-0.0772224
0.00758241
0.066534
0.0638633
-0.0450316
-0.255901
-0.526065
-0.763256
-1.03866
-1.65917
-3.29942
-0.799414
-0.783023
-0.723834
-0.652766
-0.570466
-0.483414
-0.390743
-0.295221
-0.197997
-0.10279
-0.0240552
0.0264091
0.00464746
-0.112176
-0.364638
-0.647633
-0.831835
-0.902865
-0.933756
-1.35382
-0.819365
-0.802938
-0.743128
-0.672101
-0.589766
-0.503025
-0.411103
-0.316979
-0.222119
-0.130837
-0.0576711
-0.017195
-0.0593247
-0.164432
-0.422728
-0.676255
-0.823206
-0.85292
-0.809653
-0.858064
-0.840452
-0.823907
-0.763648
-0.692746
-0.610344
-0.52401
-0.433004
-0.340504
-0.248308
-0.16136
-0.0933907
-0.0617342
-0.117945
-0.218046
-0.465962
-0.672511
-0.784568
-0.809035
-0.848117
-0.863616
-0.862473
-0.845574
-0.785315
-0.714674
-0.632133
-0.546342
-0.456336
-0.365515
-0.276228
-0.194053
-0.130807
-0.108217
-0.171344
-0.283015
-0.506322
-0.672492
-0.764182
-0.738762
-0.766314
-0.766531
-0.88515
-0.867925
-0.808062
-0.737768
-0.654933
-0.569823
-0.480949
-0.392022
-0.306061
-0.228926
-0.169946
-0.157721
-0.22094
-0.353588
-0.548992
-0.675589
-0.744545
-0.765204
-0.760069
-0.768406
-0.907941
-0.890565
-0.83175
-0.761695
-0.678495
-0.594293
-0.506595
-0.419522
-0.336912
-0.264544
-0.210003
-0.211366
-0.268729
-0.423905
-0.597299
-0.698038
-0.711799
-0.772029
-0.744171
-0.754924
-0.930648
-0.913409
-0.855924
-0.785905
-0.702463
-0.619265
-0.532703
-0.447419
-0.368211
-0.300731
-0.249376
-0.262973
-0.325567
-0.489842
-0.638144
-0.737015
-0.716865
-0.757022
-0.742368
-0.743131
-0.952652
-0.935868
-0.879511
-0.809706
-0.726503
-0.644363
-0.558816
-0.475322
-0.399481
-0.336581
-0.28799
-0.310181
-0.390874
-0.5527
-0.661408
-0.745041
-0.767945
-0.738333
-0.755181
-0.748514
-0.973462
-0.957401
-0.901954
-0.832367
-0.750122
-0.668852
-0.5841
-0.502127
-0.429266
-0.371099
-0.32502
-0.348069
-0.464471
-0.640556
-0.677487
-0.646171
-0.698368
-0.698795
-0.727353
-0.731942
-0.991996
-0.976919
-0.92251
-0.853291
-0.772785
-0.691801
-0.607769
-0.526985
-0.456082
-0.403116
-0.35976
-0.375884
-0.536888
-0.749355
-0.767929
-0.656131
-0.70313
-0.716807
-0.745239
-0.747136
-1.00746
-0.993653
-0.940677
-0.871971
-0.793285
-0.712254
-0.628802
-0.549126
-0.478237
-0.429302
-0.393129
-0.390174
-0.595901
-0.888364
-1.08882
-1.1105
-1.1123
-1.09547
-1.06877
-1.04629
-1.0187
-1.00647
-0.955707
-0.887985
-0.810283
-0.72908
-0.646282
-0.56741
-0.495235
-0.445049
-0.421777
-0.39355
-0.639413
-1.01809
-1.55749
-1.90092
-2.0026
-1.95721
-1.82926
-1.73768
-1.02476
-1.01423
-0.966289
-0.899548
-0.822304
-0.741415
-0.659027
-0.580159
-0.506132
-0.449352
-0.432964
-0.400955
-0.626142
-1.01041
-1.5504
-1.95472
-2.01514
-1.9157
-1.80624
-1.74198
-1.02466
-1.01587
-0.971244
-0.905741
-0.828957
-0.748434
-0.665733
-0.585419
-0.508766
-0.443311
-0.419004
-0.375868
-0.510226
-0.656069
-0.82715
-0.923555
-0.874306
-0.781152
-0.670811
-0.56956
-1.01681
-1.00935
-0.968795
-0.904793
-0.828855
-0.748938
-0.665614
-0.582648
-0.501787
-0.422999
-0.375184
-0.28785
-0.2495
-0.0516003
0.163331
0.339002
0.512983
0.644764
0.719503
0.75221
-0.999505
-0.992773
-0.957923
-0.896679
-0.821916
-0.742378
-0.658513
-0.572675
-0.486742
-0.388266
-0.309816
-0.182171
0.0417625
0.414862
0.83346
1.17381
1.41766
1.56556
1.632
1.65241
-0.970121
-0.963907
-0.936828
-0.880071
-0.807843
-0.729157
-0.645461
-0.556844
-0.465787
-0.353398
-0.241166
-0.121814
0.176061
0.572748
1.00881
1.37399
1.64323
1.80269
1.8702
1.8871
-0.928427
-0.924254
-0.905597
-0.854815
-0.786273
-0.709933
-0.628649
-0.539409
-0.445149
-0.334455
-0.206669
-0.12281
0.115747
0.470256
0.846979
1.16538
1.41699
1.5719
1.64264
1.66409
-0.881838
-0.881199
-0.868812
-0.823727
-0.759286
-0.68667
-0.610194
-0.524954
-0.432655
-0.332871
-0.206236
-0.135677
0.0243419
0.290586
0.581106
0.822824
1.01688
1.14578
1.20977
1.23332
-0.828682
-0.831191
-0.820065
-0.78225
-0.725795
-0.660606
-0.590599
-0.515861
-0.429547
-0.340563
-0.221375
-0.13006
-0.0202511
0.159022
0.378122
0.550012
0.682986
0.77731
0.82444
0.839506
-0.752691
-0.755652
-0.748271
-0.722025
-0.678814
-0.627615
-0.570602
-0.509491
-0.435699
-0.350776
-0.235014
-0.130743
-0.0598625
0.0707347
0.236892
0.354865
0.446653
0.513423
0.542531
0.549832
-0.668663
-0.669395
-0.664986
-0.650379
-0.622332
-0.587662
-0.54727
-0.502017
-0.444283
-0.366985
-0.260692
-0.159375
-0.107887
-0.00947928
0.107304
0.185946
0.250638
0.300573
0.314171
0.317682
-0.597139
-0.597263
-0.594086
-0.586109
-0.571068
-0.549654
-0.523586
-0.491192
-0.447107
-0.397406
-0.304701
-0.212495
-0.152202
-0.0912554
-0.0105128
0.0475747
0.0973294
0.13152
0.151442
0.156466
-0.551371
-0.551015
-0.54928
-0.545676
-0.538663
-0.527536
-0.514492
-0.497125
-0.476124
-0.447753
-0.373984
-0.289972
-0.215488
-0.174022
-0.115107
-0.0678621
-0.0251679
0.00231016
0.0224594
0.0273546
-0.53223
-0.532056
-0.531775
-0.531033
-0.529379
-0.526881
-0.52657
-0.528062
-0.538199
-0.538258
-0.508099
-0.419743
-0.322811
-0.266174
-0.215401
-0.173279
-0.128831
-0.0974571
-0.0877984
-0.0854516
-0.529439
-0.5298
-0.530735
-0.532532
-0.535538
-0.541223
-0.554361
-0.579124
-0.626261
-0.674904
-0.71429
-0.626489
-0.490258
-0.3969
-0.318001
-0.260729
-0.213631
-0.181251
-0.176083
-0.17787
-0.528738
-0.529872
-0.532207
-0.536518
-0.543884
-0.557884
-0.585483
-0.637445
-0.730959
-0.855379
-0.966925
-0.885617
-0.733186
-0.601545
-0.464046
-0.349048
-0.284088
-0.264549
-0.258783
-0.26479
-0.516705
-0.518586
-0.521623
-0.52832
-0.53983
-0.560445
-0.600477
-0.676069
-0.814105
-1.03559
-1.21139
-1.11803
-0.923859
-0.754637
-0.590837
-0.476783
-0.420791
-0.387627
-0.378802
-0.380689
-0.484321
-0.486337
-0.489133
-0.495765
-0.510217
-0.534867
-0.579529
-0.662334
-0.813702
-1.06417
-1.28246
-1.18877
-0.977278
-0.780708
-0.639349
-0.558001
-0.505432
-0.491121
-0.484601
-0.483356
-0.429606
-0.431524
-0.434892
-0.440246
-0.451382
-0.473803
-0.516153
-0.593766
-0.733727
-0.949062
-1.11929
-1.024
-0.832349
-0.690286
-0.612133
-0.559947
-0.529625
-0.53085
-0.528933
-0.527433
-0.354311
-0.355695
-0.358172
-0.362625
-0.371073
-0.387946
-0.419997
-0.479695
-0.585466
-0.738252
-0.844963
-0.74752
-0.616097
-0.56286
-0.539183
-0.512305
-0.515331
-0.516579
-0.515948
-0.513858
-0.26912
-0.269908
-0.271253
-0.273599
-0.278446
-0.288799
-0.30862
-0.346121
-0.411573
-0.502009
-0.568958
-0.473549
-0.420745
-0.422945
-0.425412
-0.443076
-0.449109
-0.451057
-0.449902
-0.447441
-0.186031
-0.186343
-0.186787
-0.187318
-0.188859
-0.193023
-0.201503
-0.218527
-0.248031
-0.288182
-0.309953
-0.264094
-0.273206
-0.288185
-0.312825
-0.34593
-0.346093
-0.350909
-0.352264
-0.352467
-0.114035
-0.11402
-0.113947
-0.113436
-0.112937
-0.112963
-0.113484
-0.115721
-0.11874
-0.112357
-0.104406
-0.1346
-0.164129
-0.192025
-0.223626
-0.24614
-0.252182
-0.25685
-0.259246
-0.259737
-0.057844
-0.0576555
-0.0574376
-0.0566758
-0.0555335
-0.0539253
-0.0509633
-0.0464661
-0.0392097
-0.0219459
-0.00711988
-0.0436183
-0.0883463
-0.121721
-0.152033
-0.168119
-0.175139
-0.180005
-0.181919
-0.182452
-0.0181872
-0.0179474
-0.0178077
-0.0172977
-0.0163494
-0.0147605
-0.0114559
-0.00595088
0.00257598
0.0162736
0.0272425
-0.00867115
-0.0461754
-0.0735226
-0.0991884
-0.111626
-0.118043
-0.121533
-0.122923
-0.123468
0.00685384
0.00707144
0.00709465
0.00720575
0.00774744
0.00876702
0.0111788
0.0153087
0.0217305
0.0301622
0.0351419
0.00643749
-0.0222999
-0.0427588
-0.0627785
-0.0716321
-0.0767093
-0.0790759
-0.0802669
-0.0807376
0.0206815
0.0208453
0.0207987
0.0205892
0.0207472
0.0212126
0.0225966
0.0250155
0.0287304
0.0326748
0.0329526
0.0122981
-0.0091895
-0.0246493
-0.0376449
-0.0443003
-0.0481226
-0.0499097
-0.0508801
-0.0512529
0.0267249
0.026834
0.0267482
0.0263743
0.0262135
0.0262244
0.0267786
0.0278775
0.0295244
0.0304745
0.0278996
0.0133522
-0.00216199
-0.0132613
-0.0218233
-0.0264155
-0.0298478
-0.031033
-0.0316847
-0.0319112
0.0277275
0.0277965
0.0276821
0.0272312
0.0268402
0.0265
0.0264259
0.0266096
0.026947
0.0263225
0.0227303
0.0124854
0.00155809
-0.00625514
-0.0121457
-0.0155516
-0.0175851
-0.0184681
-0.0188858
-0.0190725
0.0255002
0.0255438
0.0254124
0.024953
0.0244495
0.023914
0.0234536
0.0230739
0.0226645
0.0213912
0.0179055
0.0107285
0.00323881
-0.0021361
-0.00611795
-0.00847526
-0.00984695
-0.0105127
-0.0108367
-0.0109581
0.0212661
0.0212944
0.0211707
0.0207654
0.0202674
0.0197038
0.0191048
0.0184892
0.0177424
0.016325
0.0134077
0.00849812
0.00353193
-5.59169e-05
-0.00268484
-0.00428144
-0.00522174
-0.00569205
-0.00592819
-0.00600583
0.0158641
0.0158852
0.0157891
0.0154824
0.015077
0.0146144
0.0140733
0.0134934
0.0127424
0.0115083
0.00931882
0.00610174
0.00297529
0.000755387
-0.000857231
-0.00186007
-0.00246701
-0.00278839
-0.00292643
-0.00297002
0.00978888
0.00980633
0.00975495
0.00955628
0.00928689
0.00898223
0.00861322
0.00823264
0.0076938
0.0068849
0.0055319
0.00369163
0.0019158
0.000664689
-0.000224469
-0.000764579
-0.00107382
-0.00121457
-0.00126179
-0.00128989
0.00337016
0.00338079
0.00338091
0.00328861
0.00318136
0.00305691
0.00291131
0.00280381
0.00257831
0.0023253
0.00185199
0.00124813
0.000634833
0.000162403
-0.000222853
-0.00043784
-0.000526399
-0.000526886
-0.000486871
-0.000463452
-1.56873
-0.670947
-0.396129
-0.103234
0.0954234
0.267818
0.413577
0.561581
0.718983
0.795891
-0.538776
-0.105042
-0.0737534
0.124618
0.263919
0.388486
0.497155
0.592488
0.625178
0.580144
-0.126048
0.103148
0.150425
0.292179
0.389102
0.477619
0.550802
0.605227
0.610602
0.622224
0.12369
0.279947
0.317078
0.428763
0.489872
0.553618
0.602425
0.636823
0.647324
0.670157
0.317659
0.425187
0.454836
0.532043
0.576869
0.622272
0.656762
0.682146
0.692914
0.723733
0.466708
0.54136
0.571855
0.619887
0.65733
0.689606
0.715394
0.73662
0.751563
0.779307
0.591401
0.644917
0.671432
0.701732
0.731038
0.755977
0.776842
0.796501
0.811849
0.838024
0.698365
0.737393
0.759215
0.780927
0.802909
0.823116
0.84099
0.859432
0.874459
0.898014
0.794792
0.824174
0.841702
0.857643
0.874512
0.891062
0.906878
0.924049
0.93764
0.959935
0.88433
0.90541
0.920751
0.934324
0.948271
0.962335
0.97593
0.990586
1.00214
1.02181
0.971023
0.986976
1.00103
1.0131
1.02522
1.03693
1.0481
1.05982
1.06749
1.08432
1.05673
1.06972
1.08357
1.09529
1.10589
1.11567
1.12445
1.13271
1.13629
1.14758
1.14623
1.15723
1.17072
1.17994
1.18738
1.19456
1.20177
1.20838
1.20937
1.21679
1.24474
1.24948
1.25751
1.262
1.26526
1.26973
1.27572
1.2835
1.28732
1.29721
1.35807
1.34435
1.3369
1.33125
1.32856
1.32996
1.33649
1.34892
1.36365
1.3933
1.47886
1.42322
1.39233
1.37526
1.36713
1.36715
1.37579
1.39523
1.4273
1.49646
)
;

boundaryField
{
    wall-4
    {
        type            zeroGradient;
    }
    pressure-outlet-7
    {
        type            fixedValue;
        value           uniform 0;
    }
    velocity-inlet-6
    {
        type            zeroGradient;
    }
    velocity-inlet-5
    {
        type            zeroGradient;
    }
    frontAndBackPlanes
    {
        type            empty;
    }
}


// ************************************************************************* //
