/*--------------------------------*- C++ -*----------------------------------*\
| =========                 |                                                 |
| \\      /  F ield         | OpenFOAM: The Open Source CFD Toolbox           |
|  \\    /   O peration     | Version:  v2012                                 |
|   \\  /    A nd           | Website:  www.openfoam.com                      |
|    \\/     M anipulation  |                                                 |
\*---------------------------------------------------------------------------*/
FoamFile
{
    version     2.0;
    format      ascii;
    class       surfaceScalarField;
    location    "21";
    object      phi;
}
// * * * * * * * * * * * * * * * * * * * * * * * * * * * * * * * * * * * * * //

dimensions      [0 3 -1 0 0 0 0];
oriented        oriented;


internalField   nonuniform List<scalar> 
4262
(
0.10715
0.470838
0.0956023
0.705134
0.0694939
0.858411
0.0475875
1.02067
0.0312414
1.21486
0.0199741
1.44949
0.0124961
1.73334
0.0072841
2.07625
0.00341229
2.48912
-0.000215546
2.98592
-0.00384012
2.98592
-0.0076585
2.48906
-0.0128493
2.07623
-0.0202794
1.73329
-0.0314877
1.44943
-0.0478037
1.21483
-0.0696504
1.02061
-0.0956841
0.858337
-0.10721
0.705112
0.470778
0.112756
0.358082
0.135143
0.682747
0.120213
0.873342
0.0977204
1.04316
0.0747659
1.23782
0.0532604
1.47099
0.0347719
1.75183
0.0202637
2.09076
0.00882009
2.50056
-0.000730099
2.99547
-0.0103331
2.99552
-0.0216526
2.50038
-0.036012
2.09059
-0.0543764
1.75166
-0.0757447
1.4708
-0.0985225
1.23761
-0.120892
1.04298
-0.135631
0.873075
-0.112995
0.682477
0.357783
0.0918091
0.266273
0.12447
0.650086
0.12036
0.877452
0.103664
1.05986
0.0848485
1.25663
0.065872
1.48997
0.0473629
1.77034
0.0299795
2.10814
0.0141083
2.51643
-0.00141606
3.01099
-0.016853
3.01096
-0.0325745
2.5161
-0.0496763
2.10769
-0.0677565
1.76974
-0.0862838
1.48932
-0.104724
1.25605
-0.12109
1.05935
-0.125073
0.877058
-0.0921072
0.649511
0.265676
0.0636446
0.202628
0.104277
0.609454
0.105905
0.875823
0.0942244
1.07154
0.0795317
1.27133
0.0648631
1.50464
0.0491924
1.78601
0.0328493
2.12448
0.0161056
2.53317
-0.00195939
3.02906
-0.0198027
3.0288
-0.0361267
2.53243
-0.051907
2.12347
-0.0671432
1.78497
-0.0815638
1.50374
-0.096054
1.27054
-0.10747
1.07076
-0.105328
0.874916
-0.0640838
0.608267
0.201592
0.0369842
0.165644
0.0796898
0.566748
0.0900799
0.865433
0.083357
1.07826
0.0710913
1.28359
0.0588764
1.51685
0.0460767
1.79881
0.0317096
2.13885
0.0155952
2.54929
-0.00276654
3.04742
-0.0208171
3.04685
-0.0363229
2.54793
-0.0501602
2.13731
-0.0625291
1.79734
-0.0741757
1.51539
-0.0858985
1.28226
-0.0920517
1.07692
-0.0810077
0.863872
-0.0374676
0.564727
0.164124
0.018752
0.146892
0.0548244
0.530675
0.0694879
0.85077
0.0679965
1.07975
0.0603334
1.29125
0.05017
1.52702
0.0393062
1.80967
0.0275302
2.15063
0.0134187
2.5634
-0.00354691
3.06439
-0.0202606
3.06356
-0.033813
2.56148
-0.0448077
2.1483
-0.0547198
1.80726
-0.0641222
1.52479
-0.07106
1.2892
-0.0718077
1.07766
-0.0562518
0.848316
-0.0192273
0.527702
0.144897
0.00972096
0.137171
0.0395091
0.500887
0.0542679
0.836011
0.0545092
1.07951
0.0492819
1.29648
0.0412665
1.53503
0.0321302
1.81881
0.0214321
2.16132
0.00932312
2.57551
-0.00443233
3.07814
-0.0178935
3.07703
-0.0293328
2.57292
-0.038968
2.15794
-0.047084
1.81537
-0.0542547
1.53196
-0.0585849
1.29353
-0.0574322
1.07651
-0.0414596
0.832344
-0.0103335
0.496576
0.134563
0.00562225
0.131549
0.030279
0.476231
0.0452345
0.821056
0.0462028
1.07854
0.0415775
1.30111
0.0344328
1.54218
0.0259823
1.82726
0.0163268
2.17098
0.00582226
2.58601
-0.00557288
3.08954
-0.0164662
3.08792
-0.0259087
2.58237
-0.0342501
2.16628
-0.0415734
1.82269
-0.0475788
1.53797
-0.0511199
1.29707
-0.0489921
1.07438
-0.0325243
0.815876
-0.00634933
0.470401
0.128214
0.00311624
0.128433
0.0211913
0.458156
0.0351219
0.807125
0.0370993
1.07657
0.0333454
1.30486
0.0274679
1.54805
0.0203503
1.83438
0.0122229
2.17911
0.00320725
2.59503
-0.00700814
3.09975
-0.0166886
3.0976
-0.0245236
2.5902
-0.0315662
2.17332
-0.0368584
1.82799
-0.0411825
1.54229
-0.0434687
1.29936
-0.0398345
1.07075
-0.0238677
0.799909
-0.00401474
0.450548
0.124199
0.000934318
0.127498
0.0113208
0.447769
0.0225315
0.795914
0.0253913
1.07371
0.0230739
1.30718
0.0188334
1.55229
0.0139675
1.83924
0.00779753
2.18528
0.000114302
2.60271
-0.00919446
3.10906
-0.0177864
3.10619
-0.0235203
2.59594
-0.0272628
2.17706
-0.0303094
1.83103
-0.0327342
1.54472
-0.0330248
1.29965
-0.0280149
1.06574
-0.0145323
0.786427
-0.00205432
0.43807
0.122145
-0.000305783
0.127804
0.00436252
0.443101
0.0120162
0.788261
0.0148046
1.07092
0.0136342
1.30835
0.0106381
1.55529
0.00701178
1.84287
0.0024983
2.18979
-0.00342126
2.60863
-0.0109338
3.11657
-0.0175452
3.1128
-0.0214426
2.59983
-0.0235566
2.17918
-0.0251012
1.83258
-0.0254441
1.54506
-0.0241598
1.29836
-0.018665
1.06024
-0.00818447
0.775946
-0.0010407
0.430926
0.121104
-0.000543522
0.128348
0.000936061
0.441621
0.00583804
0.783359
0.00839448
1.06836
0.00790036
1.30884
0.00582514
1.55737
0.00234036
1.84635
-0.00216997
2.1943
-0.00776012
2.61422
-0.0139928
3.12281
-0.0190311
3.11784
-0.0221798
2.60298
-0.0238572
2.18085
-0.0235839
1.8323
-0.0222363
1.54371
-0.0197394
1.29587
-0.0142407
1.05475
-0.00592387
0.767629
-0.00109328
0.426096
0.120011
-0.000857468
0.129205
-0.00103244
0.441796
0.00193168
0.780395
0.00376357
1.06653
0.00386116
1.30875
0.00266616
1.55856
-0.000275312
1.8493
-0.00495826
2.19898
-0.010953
2.62022
-0.017485
3.12934
-0.0225617
3.12292
-0.0253067
2.60573
-0.025692
2.18124
-0.0244016
1.83101
-0.0224353
1.54175
-0.018712
1.29214
-0.0127423
1.04878
-0.00547447
0.760361
-0.00137727
0.421999
0.118634
-0.00144702
0.130652
-0.00281007
0.443159
-0.00144035
0.779025
0.000423215
1.06467
0.000912234
1.30826
-0.000360209
1.55983
-0.00359074
1.85253
-0.00855622
2.20395
-0.0149945
2.62665
-0.0220107
3.13635
-0.0272885
3.1282
-0.0295182
2.60796
-0.0290822
2.1808
-0.0269758
1.82891
-0.0232646
1.53804
-0.0178032
1.28668
-0.0111815
1.04215
-0.00472885
0.753909
-0.00125782
0.418528
0.117376
-0.00202466
0.132677
-0.00468849
0.445823
-0.00522654
0.779563
-0.00380237
1.06324
-0.00299338
1.30745
-0.00407205
1.56091
-0.00732279
1.85578
-0.0127122
2.20934
-0.0197281
2.63367
-0.0271091
3.14374
-0.032341
3.13343
-0.0343369
2.60995
-0.0336888
2.18015
-0.0309586
1.82618
-0.0258252
1.5329
-0.0190612
1.27992
-0.011458
1.03455
-0.00497568
0.747426
-0.00140933
0.414961
0.115966
-0.0023119
0.134989
-0.00626929
0.44978
-0.00793526
0.781229
-0.00707455
1.06238
-0.00661909
1.30699
-0.0084342
1.56273
-0.0128269
1.86017
-0.0192079
2.21572
-0.0268553
2.64132
-0.0343608
3.15124
-0.0390848
3.13815
-0.0404199
2.61129
-0.0388019
2.17854
-0.0349023
1.82228
-0.0284068
1.52641
-0.0204619
1.27197
-0.0122861
1.02637
-0.0058381
0.740978
-0.00183354
0.410957
0.114133
-0.00292543
0.137914
-0.00806111
0.454916
-0.0111403
0.784308
-0.0118028
1.06304
-0.0120863
1.30728
-0.014369
1.56501
-0.0194172
1.86522
-0.0266833
2.22299
-0.0351053
2.64974
-0.042849
3.15898
-0.0469988
3.1423
-0.047257
2.61155
-0.0445359
2.17582
-0.039533
1.81728
-0.0322808
1.51915
-0.023712
1.26341
-0.0149527
1.01762
-0.00766985
0.733695
-0.00249372
0.405781
0.111639
-0.00346403
0.141378
-0.00960831
0.46106
-0.0142334
0.788933
-0.0165405
1.06535
-0.0187375
1.30947
-0.0228431
1.56911
-0.0293126
1.87169
-0.037575
2.23125
-0.0464769
2.65864
-0.0540374
3.16655
-0.0571329
3.1454
-0.0557843
2.6102
-0.0514074
2.17144
-0.0445256
1.81039
-0.0357259
1.51036
-0.0259718
1.25365
-0.0166518
1.0083
-0.00896597
0.72601
-0.00301016
0.399825
0.108629
-0.00478206
0.14616
-0.0133468
0.469625
-0.0205288
0.796115
-0.0248796
1.0697
-0.0286858
1.31328
-0.0341859
1.57461
-0.0418191
1.87932
-0.0508901
2.24032
-0.0599893
2.66774
-0.0667632
3.17332
-0.0680227
3.14666
-0.0643249
2.6065
-0.0577215
2.16484
-0.0491573
1.80183
-0.0396204
1.50082
-0.0297717
1.2438
-0.0200877
0.998611
-0.011128
0.71705
-0.00369056
0.392387
0.104938
-0.00577366
0.151934
-0.0160308
0.479882
-0.02538
0.805464
-0.0326618
1.07698
-0.0398249
1.32044
-0.0481845
1.58297
-0.0579322
1.88907
-0.0684222
2.25081
-0.0779601
2.67728
-0.0836973
3.17906
-0.0827065
3.14567
-0.076519
2.60031
-0.0675857
2.1559
-0.0570071
1.79125
-0.0455447
1.48936
-0.0339644
1.23222
-0.0229891
0.987636
-0.0129713
0.707032
-0.00435497
0.383771
0.100583
-0.00816406
0.160098
-0.0225874
0.494306
-0.0354721
0.818349
-0.045399
1.08691
-0.054682
1.32972
-0.0654614
1.59375
-0.0775739
1.90118
-0.0896323
2.26287
-0.0994074
2.68705
-0.103682
3.18333
-0.0997786
3.14176
-0.0903549
2.59089
-0.0783048
2.14385
-0.065332
1.77828
-0.0527044
1.47673
-0.0407216
1.22024
-0.0287911
0.975706
-0.016454
0.694695
-0.00543
0.372747
0.0951535
-0.0101217
0.17022
-0.0274922
0.511676
-0.0439908
0.834848
-0.0580599
1.10098
-0.0721649
1.34383
-0.0871356
1.60872
-0.102278
1.91632
-0.116228
2.27682
-0.126314
2.69714
-0.128825
3.18584
-0.121612
3.13455
-0.10888
2.57816
-0.0940118
2.12898
-0.0786231
1.76289
-0.0633823
1.46149
-0.0485745
1.20543
-0.033913
0.961044
-0.0193353
0.680117
-0.00640146
0.359813
0.088752
-0.0150077
0.185227
-0.0389685
0.535637
-0.0602013
0.85608
-0.078288
1.11907
-0.0961026
1.36164
-0.114732
1.62735
-0.133155
1.93475
-0.148931
2.29259
-0.158836
2.70705
-0.159008
3.18601
-0.148057
3.1236
-0.131334
2.56143
-0.112348
2.11
-0.0933246
1.74387
-0.0755222
1.44368
-0.0589103
1.18882
-0.0422
0.944334
-0.0242346
0.662152
-0.00779334
0.343372
0.0809587
-0.0191958
0.204423
-0.0502701
0.566711
-0.0793632
0.885174
-0.1037
1.1434
-0.127938
1.38588
-0.151895
1.65131
-0.173764
1.95662
-0.190664
2.30949
-0.199513
2.7159
-0.196261
3.18276
-0.180236
3.10757
-0.158743
2.53994
-0.136024
2.08728
-0.113928
1.72177
-0.0929815
1.42274
-0.0726162
1.16845
-0.0512044
0.922922
-0.028667
0.639614
-0.00894099
0.323646
0.0720177
-0.0334978
0.237921
-0.075987
0.6092
-0.112019
0.921206
-0.142637
1.17402
-0.173292
1.41654
-0.201226
1.67925
-0.224737
1.98013
-0.24122
2.32598
-0.247357
2.72203
-0.239196
3.1746
-0.217695
3.08607
-0.191415
2.51366
-0.163953
2.05982
-0.137322
1.69514
-0.112266
1.39768
-0.0880931
1.14428
-0.0630099
0.897839
-0.0359456
0.61255
-0.0108674
0.298568
0.0611503
-0.0466866
0.284608
-0.111954
0.674467
-0.162472
0.971724
-0.201691
1.21324
-0.237766
1.45261
-0.26751
1.70899
-0.290529
2.00315
-0.3042
2.33965
-0.305339
2.72317
-0.290413
3.15967
-0.261987
3.05765
-0.229615
2.48129
-0.197321
2.02752
-0.16686
1.66468
-0.138551
1.36937
-0.110621
1.11635
-0.0791641
0.866382
-0.0420307
0.575417
-0.0112424
0.267779
0.0499079
-0.0309751
0.315583
-0.0853784
0.728871
-0.133905
1.02025
-0.177915
1.25725
-0.2192
1.4939
-0.257792
1.74758
-0.292753
2.03811
-0.321174
2.36807
-0.338865
2.74086
-0.33894
3.15975
-0.318333
3.03704
-0.286215
2.44917
-0.247722
1.98903
-0.20612
1.62308
-0.16335
1.3266
-0.119723
1.07272
-0.0743527
0.821012
-0.0328944
0.533958
-0.00701106
0.241896
0.0428969
-0.00787654
0.323459
-0.0353016
0.756296
-0.071732
1.05668
-0.10923
1.29475
-0.146172
1.53084
-0.181165
1.78257
-0.21253
2.06947
-0.237414
2.39295
-0.251445
2.75489
-0.248532
3.15684
-0.226094
3.0146
-0.191787
2.41486
-0.152569
1.94981
-0.112789
1.5833
-0.074191
1.28801
-0.0385938
1.03713
-0.0101354
0.792553
0.00537855
0.518444
0.00523248
0.242042
0.0481293
0.00384587
0.319613
-0.0143247
0.774466
-0.0411358
1.08349
-0.0709817
1.32459
-0.101268
1.56113
-0.131158
1.81246
-0.158602
2.09692
-0.180439
2.41479
-0.19248
2.76693
-0.188766
3.15312
-0.166416
2.99225
-0.135112
2.38356
-0.100721
1.91542
-0.0665556
1.54913
-0.035072
1.25652
-0.00837893
1.01043
0.0108166
0.773358
0.0154853
0.513776
0.00771487
0.249812
0.0558442
0.00436064
0.315253
-0.00545242
0.784279
-0.025467
1.10351
-0.0499483
1.34907
-0.0747715
1.58595
-0.100101
1.83779
-0.123826
2.12064
-0.142845
2.43381
-0.153005
2.77709
-0.148267
3.14838
-0.1285
2.97249
-0.102415
2.35747
-0.07425
1.88725
-0.046685
1.52157
-0.0215077
1.23134
-1.02937e-05
0.988937
0.0134912
0.759856
0.015239
0.512028
0.00645723
0.258594
0.0623014
0.00648871
0.308764
-0.000360077
0.791128
-0.0180916
1.12124
-0.0385008
1.36948
-0.0595505
1.607
-0.0814664
1.85971
-0.102142
2.14132
-0.118953
2.45062
-0.128242
2.78638
-0.125707
3.14585
-0.109638
2.95642
-0.0863363
2.33417
-0.0617991
1.86272
-0.0383369
1.4981
-0.0168634
1.20987
0.000615591
0.971458
0.0104158
0.750056
0.0104171
0.512027
0.00394316
0.265068
0.0662446
0.00624749
0.302517
0.00142967
0.795946
-0.0139524
1.13662
-0.0322205
1.38775
-0.0511187
1.6259
-0.0706118
1.8792
-0.0891828
2.15989
-0.104739
2.46618
-0.113995
2.79564
-0.112018
3.14387
-0.0972238
2.94162
-0.0778003
2.31475
-0.057235
1.84215
-0.0369519
1.47782
-0.0192416
1.19216
-0.00545869
0.957675
0.00316628
0.741431
0.00463604
0.510557
0.00172277
0.267981
0.0679674
0.00443216
0.298084
0.00122294
0.799155
-0.0121421
1.14999
-0.0288877
1.4045
-0.0466572
1.64367
-0.0646789
1.89722
-0.0820128
2.17722
-0.0969591
2.48112
-0.106431
2.80511
-0.105867
3.14331
-0.0941662
2.92992
-0.076551
2.29713
-0.0573056
1.82291
-0.0395445
1.46006
-0.0238118
1.17643
-0.0115559
0.945419
-0.00468754
0.734563
-0.00197408
0.507843
-0.000496474
0.266504
0.0674709
0.00275268
0.295332
0.000112672
0.801795
-0.0119071
1.16201
-0.0275815
1.42017
-0.0444925
1.66058
-0.0616473
1.91438
-0.0782836
2.19386
-0.0929036
2.49574
-0.102503
2.81471
-0.102924
3.14373
-0.0916628
2.91866
-0.07506
2.28053
-0.0581698
1.80602
-0.0421449
1.44403
-0.0284629
1.16275
-0.0178202
0.934776
-0.0101025
0.726845
-0.00586535
0.503606
-0.00183283
0.262471
0.0656381
0.000174804
0.295157
-0.00232862
0.804299
-0.0129518
1.17263
-0.0274169
1.43464
-0.043493
1.67665
-0.0601615
1.93105
-0.0765549
2.21025
-0.0913261
2.51051
-0.102003
2.82539
-0.104757
3.14648
-0.0959045
2.90981
-0.0812357
2.26586
-0.0649495
1.78973
-0.0505044
1.42959
-0.0367365
1.14898
-0.0251684
0.923208
-0.0159417
0.717618
-0.00819371
0.495858
-0.00251887
0.256796
0.0631192
-0.000445651
0.295603
-0.00506177
0.808915
-0.0147132
1.18228
-0.0280217
1.44794
-0.0431547
1.69179
-0.0593684
1.94726
-0.0757992
2.22668
-0.0910402
2.52575
-0.102661
2.83701
-0.10635
3.15017
-0.0989517
2.90241
-0.0853939
2.2523
-0.0696959
1.77403
-0.0525416
1.41243
-0.0388058
1.13524
-0.0268818
0.911284
-0.0171546
0.707891
-0.00975957
0.488463
-0.00309911
0.250136
0.0600201
-0.00259395
0.298197
-0.00765994
0.813981
-0.0169648
1.19158
-0.029063
1.46004
-0.0432964
1.70602
-0.0590338
1.963
-0.0755464
2.2432
-0.0914281
2.54164
-0.104611
2.85019
-0.111501
3.15706
-0.107219
2.89813
-0.0936271
2.23871
-0.0766506
1.75706
-0.0620893
1.39787
-0.0475718
1.12073
-0.0349333
0.898646
-0.0233773
0.696335
-0.0116043
0.47669
-0.0036128
0.242144
0.0564073
-0.00396684
0.302163
-0.00922219
0.819236
-0.0182496
1.20061
-0.0299486
1.47174
-0.0435789
1.71965
-0.0588879
1.97831
-0.0754372
2.25975
-0.0919989
2.5582
-0.106632
2.86482
-0.115304
3.16574
-0.11174
2.89456
-0.100495
2.22747
-0.0851951
1.74176
-0.0673208
1.38
-0.050895
1.1043
-0.0360079
0.883759
-0.0233369
0.683664
-0.0130193
0.466373
-0.00407187
0.233197
0.0523354
-0.0044112
0.306575
-0.0104218
0.825247
-0.0193125
1.2095
-0.030667
1.4831
-0.0438762
1.73286
-0.0588339
1.99326
-0.0753789
2.27629
-0.0926131
2.57543
-0.108836
2.88104
-0.120469
3.17737
-0.121087
2.89518
-0.109995
2.21638
-0.0913709
1.72313
-0.0731397
1.36177
-0.0576147
1.08877
-0.0444675
0.870611
-0.0305171
0.669714
-0.0152131
0.451069
-0.00459329
0.222577
0.0477421
-0.0043594
0.310934
-0.0107853
0.831673
-0.0197384
1.21846
-0.0309221
1.49428
-0.043887
1.74582
-0.0586008
2.00798
-0.075146
2.29284
-0.0928915
2.59318
-0.110407
2.89856
-0.124391
3.19135
-0.127126
2.89792
-0.11803
2.20728
-0.103583
1.70868
-0.0835737
1.34176
-0.0634644
1.06867
-0.0441697
0.851317
-0.0282989
0.653843
-0.0155385
0.438308
-0.0045976
0.211636
0.0431445
-0.00433876
0.315273
-0.0111757
0.83851
-0.0199611
1.22724
-0.0308475
1.50517
-0.0435928
1.75857
-0.0581242
2.02251
-0.0746368
2.30935
-0.0927922
2.61133
-0.11155
2.91732
-0.127773
3.20758
-0.134026
2.90417
-0.128204
2.20146
-0.111261
1.69174
-0.0911376
1.32163
-0.069341
1.04687
-0.0520462
0.834022
-0.0356986
0.637495
-0.017473
0.420083
-0.00451961
0.198683
0.0386249
-0.00430125
0.319574
-0.0111323
0.845341
-0.0197591
1.23587
-0.0303826
1.51579
-0.042868
1.77106
-0.057189
2.03683
-0.0736726
2.32583
-0.092172
2.62983
-0.111994
2.93714
-0.130673
3.22625
-0.140921
2.91442
-0.137206
2.19774
-0.123902
1.67844
-0.101639
1.29937
-0.0764121
1.02164
-0.0493522
0.806962
-0.028092
0.616235
-0.0140767
0.406068
-0.00341168
0.188018
0.0352133
-0.00432416
0.323898
-0.0111952
0.852212
-0.0194917
1.24416
-0.0297165
1.52601
-0.0418446
1.78318
-0.0559216
2.05091
-0.072335
2.34225
-0.091167
2.64866
-0.11214
2.95811
-0.133264
3.24738
-0.146936
2.92809
-0.146174
2.19698
-0.13195
1.66421
-0.110346
1.27777
-0.0829963
0.994292
-0.0565748
0.78054
-0.0316066
0.591267
-0.0117733
0.386234
-0.00270895
0.178953
0.0325043
-0.00422715
0.328125
-0.0108829
0.858867
-0.0189278
1.25221
-0.0288083
1.5359
-0.0405436
1.79492
-0.0543099
2.06467
-0.0705993
2.35853
-0.0895832
2.66765
-0.110992
2.97952
-0.132916
3.2693
-0.147922
2.9431
-0.152044
2.2011
-0.146053
1.65822
-0.125022
1.25674
-0.0940251
0.963295
-0.051708
0.738223
-0.0101792
0.549738
0.0147617
0.361293
0.01891
0.174805
0.0514143
-0.00408932
0.332215
-0.0106586
0.865437
-0.0183633
1.25991
-0.0278095
1.54534
-0.0390954
1.80621
-0.052498
2.07808
-0.0685515
2.37459
-0.0875489
2.68665
-0.109824
3.0018
-0.135186
3.29466
-0.155647
2.96356
-0.163584
2.20904
-0.154891
1.64953
-0.136291
1.23813
-0.103332
0.930337
-0.0625231
0.697414
-0.00807974
0.495295
0.0268572
0.326357
0.0136616
0.188001
0.0650759
-0.00384461
0.336059
-0.0101223
0.871714
-0.0175577
1.26735
-0.026631
1.55441
-0.037523
1.8171
-0.0505086
2.09106
-0.0662432
2.39032
-0.0852093
2.70561
-0.107791
3.02438
-0.132623
3.3195
-0.15259
2.98352
-0.165446
2.2219
-0.169758
1.65384
-0.155674
1.22405
-0.12517
0.899833
-0.0659876
0.638232
0.0306337
0.398673
0.139743
0.217248
0.163314
0.164429
0.22839
-0.00366224
0.339721
-0.00990678
0.877959
-0.01721
1.27465
-0.0261853
1.56339
-0.0371636
1.82808
-0.0504937
2.10439
-0.0670231
2.40685
-0.0874193
2.72601
-0.112504
3.04946
-0.143393
3.35039
-0.173493
3.01362
-0.192534
2.24094
-0.194915
1.65622
-0.184857
1.21399
-0.157916
0.872893
-0.125882
0.606197
-0.145182
0.417974
-0.369761
0.441827
-0.914857
0.709525
0.889027
-1.57549
-0.00343842
0.34316
-0.00938139
0.883902
-0.0164973
1.28177
-0.0252942
1.57219
-0.0361252
1.83891
-0.0494574
2.11772
-0.0662266
2.42362
-0.0873734
2.74715
-0.114279
3.07637
-0.147522
3.38363
-0.179411
3.04551
-0.204619
2.26615
-0.230044
1.68165
-0.240357
1.22431
-0.244761
0.877297
-0.321485
0.68292
-0.683602
0.780091
-1.38768
1.14591
-2.0048
1.32664
1.22256
-2.33834
-0.00326143
0.346421
-0.00895765
0.889598
-0.0157867
1.2886
-0.0243115
1.58071
-0.0349454
1.84954
-0.0482502
2.13103
-0.0652683
2.44064
-0.0871435
2.76903
-0.11544
3.10466
-0.152407
3.4206
-0.192569
3.08567
-0.229296
2.30287
-0.255271
1.70762
-0.270126
1.23916
-0.358373
0.965544
-0.737443
1.06199
-1.48717
1.52982
-2.07777
1.73651
-2.32534
1.57421
1.3407
-2.44348
-0.00299232
0.349414
-0.00830826
0.894914
-0.014876
1.29517
-0.0231601
1.589
-0.0335841
1.85996
-0.0468333
2.14428
-0.0639881
2.45779
-0.0864096
2.79145
-0.116407
3.13466
-0.157196
3.46139
-0.202593
3.13107
-0.241378
2.34166
-0.288475
1.75472
-0.383607
1.33429
-0.695079
1.27702
-1.39672
1.76363
-2.00044
2.13353
-2.24748
1.98355
-2.36507
1.6918
1.40848
-2.43284
-0.00274189
0.352155
-0.00772608
0.899898
-0.0139382
1.30138
-0.0218871
1.59694
-0.0321049
1.87018
-0.045237
2.15741
-0.0624738
2.47503
-0.0854444
2.81442
-0.116658
3.16587
-0.159607
3.50433
-0.210675
3.18214
-0.266958
2.39794
-0.325019
1.81278
-0.493881
1.50316
-1.0535
1.83663
-1.74651
2.45664
-2.08798
2.47501
-2.24455
2.14012
-2.33079
1.77804
1.47579
-2.3981
-0.00258797
0.354743
-0.00737397
0.904684
-0.0135656
1.30757
-0.0215424
1.60492
-0.0319492
1.88059
-0.0452663
2.17073
-0.0629119
2.49268
-0.0866229
2.83813
-0.11939
3.19864
-0.166951
3.5519
-0.226946
3.24213
-0.281428
2.45242
-0.375459
1.90681
-0.736938
1.86464
-1.44766
2.54735
-1.94479
2.95377
-2.15272
2.68295
-2.26303
2.25042
-2.34173
1.85673
1.54183
-2.40777
-0.00257122
0.357315
-0.00761706
0.90973
-0.0140792
1.31403
-0.0223966
1.61324
-0.0332322
1.89142
-0.0470927
2.18459
-0.0654307
2.51101
-0.0901268
2.86283
-0.124556
3.23307
-0.174247
3.60159
-0.233855
3.30174
-0.30766
2.52623
-0.491345
2.0905
-1.00386
2.37715
-1.63766
3.18116
-1.93566
3.25177
-2.08929
2.83657
-2.20865
2.36979
-2.30478
1.95286
1.60715
-2.37009
-0.00248563
0.3598
-0.00763289
0.914877
-0.0144889
1.32089
-0.0232672
1.62202
-0.0345599
1.90272
-0.0489958
2.19902
-0.0680902
2.53011
-0.0939585
2.8887
-0.129999
3.26911
-0.183146
3.65473
-0.252937
3.37153
-0.343434
2.61673
-0.603866
2.35093
-1.21455
2.98783
-1.72524
3.69184
-1.94143
3.46796
-2.09052
2.98566
-2.22348
2.50274
-2.34281
2.0722
1.67054
-2.4062
-0.00234915
0.362149
-0.00779904
0.920327
-0.0149773
1.32807
-0.0241559
1.6312
-0.0359017
1.91446
-0.0509245
2.21405
-0.0707264
2.54991
-0.0974194
2.91539
-0.134749
3.30644
-0.19035
3.71033
-0.260525
3.4417
-0.38186
2.73806
-0.735594
2.70466
-1.35593
3.60817
-1.73771
4.07363
-1.92297
3.65322
-2.0369
3.09959
-2.13791
2.60376
-2.21427
2.14856
1.66648
-2.21021
-0.00209321
0.364243
-0.00757347
0.925807
-0.0151961
1.33569
-0.0249092
1.64091
-0.0371853
1.92674
-0.0527826
2.22964
-0.0732727
2.5704
-0.101109
2.94323
-0.140343
3.34568
-0.197653
3.76764
-0.277634
3.52168
-0.437185
2.89761
-0.856566
3.12404
-1.41412
4.16572
-1.6947
4.3542
-1.86695
3.82547
-1.97263
3.20527
-1.98392
2.61505
-1.93229
2.09693
1.65738
-1.92319
-0.00184105
0.366084
-0.00753926
0.931506
-0.0154059
1.34355
-0.0254393
1.65094
-0.038042
1.93934
-0.0539569
2.24556
-0.0747254
2.59117
-0.102591
2.97109
-0.141139
3.38422
-0.197304
3.82381
-0.281868
3.60625
-0.469492
3.08524
-0.916732
3.57128
-1.37745
4.62644
-1.5691
4.54586
-1.65006
3.90642
-1.6664
3.22161
-1.53099
2.47964
-1.0423
1.60824
0.615079
-0.00128189
0.367366
-0.00678848
0.937012
-0.0151436
1.35191
-0.0258773
1.66168
-0.0393532
1.95282
-0.0562994
2.26251
-0.0784465
2.61332
-0.108326
3.00097
-0.150815
3.42671
-0.213388
3.88638
-0.311689
3.70455
-0.543219
3.31677
-1.04638
4.07445
-1.43267
5.01273
-1.5434
4.65659
-1.55459
3.91761
-1.46924
3.13626
-1.2391
2.2495
-0.665668
1.03481
-0.0505895
-0.000837129
0.368203
-0.00617907
0.942354
-0.0147167
1.36045
-0.0259285
1.67289
-0.0400796
1.96697
-0.0580829
2.28051
-0.0817973
2.63703
-0.114074
3.03325
-0.159499
3.47214
-0.226762
3.95365
-0.342648
3.82044
-0.616947
3.59107
-1.14276
4.60026
-1.44543
5.3154
-1.52645
4.73761
-1.51649
3.90765
-1.32134
2.94111
-0.822497
1.75065
-0.129283
0.341597
-0.179872
6.49657e-05
0.368138
-0.00442998
0.946849
-0.0133516
1.36937
-0.0253215
1.68486
-0.0402181
1.98187
-0.0591266
2.29942
-0.0839958
2.6619
-0.117569
3.06682
-0.165561
3.52013
-0.238313
4.0264
-0.367018
3.94914
-0.692632
3.91668
-1.22153
5.12916
-1.43054
5.52441
-1.46553
4.77259
-1.39655
3.83868
-1.1168
2.66136
-0.364288
0.998139
0.0351438
-0.0578348
-0.144728
0.00121165
0.366926
-0.00260446
0.950665
-0.0116522
1.37842
-0.0239659
1.69717
-0.0392389
1.99714
-0.0589419
2.31912
-0.0850282
2.68799
-0.120579
3.10237
-0.171245
3.57079
-0.251032
4.10619
-0.403651
4.10176
-0.769074
4.2821
-1.24917
5.60925
-1.38677
5.66202
-1.40769
4.79351
-1.24846
3.67944
-0.761356
2.17426
-0.090784
0.327567
0.0395161
-0.188135
-0.105212
0.00294735
0.363979
0.000835999
0.952777
-0.00863287
1.38789
-0.0213715
1.70991
-0.0370731
2.01284
-0.0574508
2.3395
-0.0843265
2.71486
-0.120671
3.13872
-0.171479
3.6216
-0.254275
4.18898
-0.415899
4.26338
-0.822828
4.68903
-1.24101
6.02743
-1.33305
5.75406
-1.31204
4.7725
-1.04994
3.41734
-0.411967
1.53629
-0.0222087
-0.0621916
0.00989216
-0.220236
-0.0953202
0.0042448
0.359734
0.0030755
0.953946
-0.00523725
1.3962
-0.0175063
1.72218
-0.03313
2.02846
-0.0536979
2.36007
-0.0807664
2.74193
-0.117022
3.17497
-0.168124
3.6727
-0.257221
4.27808
-0.439395
4.44556
-0.868965
5.1186
-1.1867
6.34517
-1.2316
5.79895
-1.15965
4.70055
-0.863212
3.12091
-0.181368
0.854442
-0.0153517
-0.228208
-0.00625097
-0.229336
-0.101571
0.00668812
0.353046
0.00761766
0.953016
0.00077265
1.40304
-0.0111935
1.73415
-0.0270322
2.0443
-0.047861
2.38089
-0.0745569
2.76863
-0.110975
3.21139
-0.1621
3.72383
-0.250154
4.36613
-0.436465
4.63187
-0.846684
5.52882
-1.08709
6.58558
-1.12861
5.84047
-0.983369
4.55532
-0.570037
2.70758
-0.0257261
0.310131
0.0201551
-0.274089
0.0125804
-0.221762
-0.0889908
0.00911872
0.343927
0.0127093
0.949426
0.00743504
1.40832
-0.00277987
1.74436
-0.0186436
2.06017
-0.0382523
2.4005
-0.0634821
2.79386
-0.0979629
3.24587
-0.145994
3.77186
-0.23321
4.45335
-0.428544
4.8272
-0.801986
5.90226
-0.974012
6.7576
-1.00954
5.87599
-0.814131
4.35991
-0.311711
2.20516
-0.0035831
0.00200332
-0.0010112
-0.276661
0.0143783
-0.237151
-0.0746125
0.0132515
0.330676
0.0210416
0.941636
0.0180708
1.41129
0.00840135
1.75403
-0.00653606
2.0751
-0.0244757
2.41844
-0.0481034
2.81748
-0.0790885
3.27686
-0.12138
3.81415
-0.197123
4.52909
-0.382254
5.01233
-0.67368
6.19369
-0.7893
6.87322
-0.808729
5.89542
-0.659298
4.21048
-0.201811
1.74767
-0.0928096
-0.106998
-0.0604126
-0.309058
-0.0151093
-0.282454
-0.0897218
0.0172739
0.313402
0.0296509
0.929259
0.0296298
1.41131
0.0217789
1.76188
0.00968075
2.0872
-0.00510578
2.43323
-0.0254072
2.83779
-0.0524728
3.30392
-0.0891734
3.85085
-0.151481
4.5914
-0.30452
5.16537
-0.503567
6.39274
-0.601549
6.97121
-0.671376
5.96525
-0.631736
4.17084
-0.428748
1.54468
-0.477812
-0.0579343
-0.343222
-0.443648
-0.17395
-0.451726
-0.263672
0.0230126
0.290389
0.0423652
0.909906
0.0470967
1.40658
0.0423386
1.76664
0.0328148
2.09673
0.0196152
2.44643
0.00263045
2.85477
-0.0186331
3.32519
-0.0451781
3.8774
-0.0799386
4.62616
-0.171386
5.25682
-0.269215
6.49057
-0.338947
7.04094
-0.418478
6.04478
-0.516872
4.26923
-0.639783
1.66759
-0.721898
0.0241806
-0.551978
-0.613569
-0.273019
-0.730684
-0.536691
0.0283912
0.261998
0.0553437
0.882954
0.0658118
1.39611
0.0656783
1.76677
0.0595476
2.10286
0.0509681
2.45501
0.0411111
2.86463
0.0294728
3.33682
0.0162341
3.89064
0.00629958
4.63609
0.0153644
5.24775
0.0440733
6.46186
0.0506642
7.03435
0.0284721
6.06697
-0.0405952
4.3383
-0.286623
1.91362
-0.584152
0.32171
-0.587636
-0.610084
-0.279762
-1.03856
-0.816454
0.035229
0.226769
0.0733132
0.84487
0.0923094
1.37711
0.0967877
1.76229
0.0949113
2.10473
0.0916362
2.45828
0.0887682
2.8675
0.0858131
3.33978
0.0877239
3.88873
0.116282
4.60754
0.206719
5.15732
0.455127
6.21345
0.689948
6.79953
1.00463
5.75229
1.07238
4.27055
0.685633
2.30037
0.291153
0.71619
-0.0246782
-0.294254
-0.106705
-0.956531
-0.923159
0.0405096
0.186259
0.0910566
0.794323
0.119648
1.34852
0.131598
1.75034
0.136957
2.09937
0.138608
2.45663
0.143251
2.86285
0.151523
3.33151
0.167027
3.87322
0.231011
4.54355
0.419797
4.96853
0.954411
5.67883
1.3584
6.39553
1.71911
5.39158
1.83526
4.15441
1.51169
2.62393
1.10192
1.12596
0.6954
0.112268
0.255096
-0.516228
-0.668063
0.044356
0.141903
0.110996
0.727683
0.153656
1.30586
0.173482
1.73052
0.185938
2.08692
0.193723
2.44885
0.206265
2.85031
0.22851
3.30926
0.255726
3.84601
0.346994
4.45228
0.591868
4.72366
1.24934
5.02136
1.68683
5.95804
1.99085
5.08755
2.11592
4.02935
1.87904
2.86081
1.38629
1.61871
0.87828
0.620281
0.389551
-0.027499
-0.278511
0.0435751
0.0983281
0.128305
0.642953
0.188772
1.2454
0.221912
1.69738
0.243579
2.06525
0.259113
2.43331
0.279287
2.83014
0.30707
3.28148
0.351243
3.80183
0.455585
4.34794
0.703989
4.47525
1.23341
4.49194
1.67401
5.51744
1.89655
4.86501
1.96765
3.95825
1.79846
3.03
1.37863
2.03854
0.882331
1.11658
0.380458
0.474374
0.101947
0.0386838
0.0596443
0.14427
0.537367
0.226313
1.16335
0.274339
1.64935
0.306879
2.03271
0.33192
2.40827
0.358096
2.80396
0.391444
3.24813
0.438592
3.75468
0.49248
4.29405
0.663135
4.3046
1.05262
4.10246
1.48274
5.08732
1.59442
4.75333
1.59204
3.96064
1.45125
3.17079
1.13105
2.35873
0.71967
1.52796
0.298183
0.895861
0.40013
0.0342204
0.025424
0.158871
0.412715
0.265507
1.05672
0.331884
1.58297
0.375434
1.98916
0.410752
2.37295
0.443121
2.77159
0.47871
3.21254
0.501685
3.73171
0.490466
4.30527
0.538739
4.25632
0.783334
3.85786
1.16158
4.70908
1.22175
4.69316
1.15674
4.02564
1.01763
3.30989
0.783767
2.5926
0.475017
1.83671
0.176403
1.19448
0.576532
0.0333292
-0.00790527
0.158587
0.287457
0.299176
0.916128
0.396286
1.48586
0.459753
1.92569
0.511375
2.32133
0.554711
2.72826
0.581579
3.18567
0.59462
3.71867
0.548479
4.35141
0.505085
4.29972
0.572296
3.79065
0.915271
4.3661
0.968854
4.63957
0.879638
4.11486
0.746344
3.44319
0.558128
2.78082
0.310268
2.08457
0.105103
1.39964
0.681635
0.0252595
-0.0331647
0.0996389
0.213078
0.22963
0.786137
0.344824
1.37067
0.426825
1.84369
0.483507
2.26465
0.523923
2.68784
0.530931
3.17867
0.536776
3.71282
0.481703
4.40649
0.371039
4.41038
0.317816
3.84388
0.472362
4.21156
0.504001
4.60794
0.455103
4.16376
0.36955
3.52874
0.262144
2.88822
0.137695
2.20902
0.0358476
1.50149
0.717483
-0.00512957
-0.0280352
-0.00401319
0.211961
0.0602321
0.721891
0.157953
1.27295
0.254955
1.74669
0.340125
2.17948
0.413729
2.61424
0.463266
3.12913
0.508006
3.66808
0.481965
4.43253
0.341407
4.55094
0.233751
3.95153
0.286504
4.1588
0.315849
4.57859
0.274381
4.20523
0.198411
3.60471
0.112106
2.97453
0.0443849
2.27674
-0.00779578
1.55367
0.709687
-0.0235344
-0.00450074
-0.0513636
0.239791
-0.0357491
0.706277
0.0369656
1.20023
0.135292
1.64837
0.241157
2.07361
0.345627
2.50977
0.448003
3.02675
0.534247
3.58184
0.557107
4.40967
0.419828
4.68822
0.232557
4.1388
0.201882
4.18948
0.193955
4.58652
0.137186
4.262
0.0671614
3.67473
0.021892
3.0198
-0.0167728
2.3154
-0.0316267
1.56852
0.67806
-0.0263168
0.021816
-0.0659425
0.279416
-0.0700487
0.710383
-0.0182577
1.14844
0.0759234
1.55418
0.1965
1.95304
0.333113
2.37315
0.492776
2.86709
0.644998
3.42962
0.730865
4.3238
0.591318
4.82777
0.271877
4.45825
0.142364
4.31899
0.0812664
4.64761
0.0118898
4.33137
-0.0321649
3.71879
-0.0465329
3.03417
-0.0704561
2.33933
-0.0562327
1.5543
0.621828
-0.0219125
0.0437285
-0.0579121
0.315416
-0.0666776
0.719149
-0.0234058
1.10517
0.0680211
1.46276
0.199896
1.82116
0.364834