/*--------------------------------*- C++ -*----------------------------------*\
| =========                 |                                                 |
| \\      /  F ield         | OpenFOAM: The Open Source CFD Toolbox           |
|  \\    /   O peration     | Version:  v2012                                 |
|   \\  /    A nd           | Website:  www.openfoam.com                      |
|    \\/     M anipulation  |                                                 |
\*---------------------------------------------------------------------------*/
FoamFile
{
    version     2.0;
    format      ascii;
    class       volVectorField;
    location    "21";
    object      U;
}
// * * * * * * * * * * * * * * * * * * * * * * * * * * * * * * * * * * * * * //

dimensions      [0 1 -1 0 0 0 0];


internalField   nonuniform List<vector> 
2200
(
(0.878802 -0.0304063 0)
(1.00575 -0.0513025 0)
(1.00316 -0.035404 0)
(1.00022 -0.024521 0)
(1.00004 -0.0167884 0)
(1.00015 -0.0108251 0)
(0.999982 -0.00691354 0)
(0.999851 -0.00422769 0)
(0.999852 -0.00226464 0)
(1.00017 -0.000783797 0)
(1.00006 0.000973498 0)
(0.99987 0.0024505 0)
(0.999833 0.00437377 0)
(0.999985 0.00707876 0)
(1.00016 0.0109352 0)
(1.00004 0.0168906 0)
(1.00025 0.0246109 0)
(1.00323 0.0354492 0)
(1.00576 0.0513294 0)
(0.87881 0.0304275 0)
(0.711984 -0.0327305 0)
(0.996605 -0.0629376 0)
(1.03322 -0.0561203 0)
(1.02473 -0.0463423 0)
(1.01564 -0.0360929 0)
(1.00956 -0.0265698 0)
(1.00603 -0.0183336 0)
(1.00405 -0.0115054 0)
(1.00287 -0.00599189 0)
(1.00218 -0.00155085 0)
(1.00218 0.00220083 0)
(1.00278 0.00664861 0)
(1.00402 0.0120861 0)
(1.00598 0.0188172 0)
(1.00948 0.0270413 0)
(1.0156 0.036483 0)
(1.0246 0.0466298 0)
(1.03297 0.0564057 0)
(0.996455 0.0630962 0)
(0.711751 0.0327739 0)
(0.535967 -0.0238703 0)
(0.970039 -0.0567505 0)
(1.05645 -0.0544662 0)
(1.05205 -0.0483146 0)
(1.03592 -0.0398671 0)
(1.02434 -0.0316694 0)
(1.01597 -0.0235278 0)
(1.01035 -0.0159695 0)
(1.00694 -0.00894558 0)
(1.00541 -0.00247146 0)
(1.00536 0.00366734 0)
(1.00685 0.0101086 0)
(1.01021 0.0170308 0)
(1.01577 0.0244615 0)
(1.02408 0.0323698 0)
(1.03557 0.0404189 0)
(1.05174 0.0487552 0)
(1.05623 0.0546586 0)
(0.969501 0.0570115 0)
(0.535253 0.0239244 0)
(0.392995 -0.0135126 0)
(0.912282 -0.0462409 0)
(1.05781 -0.0465623 0)
(1.07002 -0.0440093 0)
(1.05505 -0.0375145 0)
(1.03924 -0.0306483 0)
(1.02749 -0.0240231 0)
(1.01903 -0.0171136 0)
(1.01358 -0.010047 0)
(1.01089 -0.00286059 0)
(1.01084 0.00452174 0)
(1.01342 0.0115573 0)
(1.01866 0.018421 0)
(1.02697 0.025068 0)
(1.03863 0.0315715 0)
(1.05447 0.0383442 0)
(1.06937 0.0447595 0)
(1.05684 0.047161 0)
(0.911102 0.0465629 0)
(0.391571 0.0136012 0)
(0.30931 -0.00440431 0)
(0.847591 -0.0319596 0)
(1.04992 -0.0395525 0)
(1.07988 -0.0379199 0)
(1.06865 -0.0333435 0)
(1.05156 -0.0276769 0)
(1.03799 -0.0223924 0)
(1.0279 -0.0164505 0)
(1.02115 -0.00982485 0)
(1.0177 -0.0026369 0)
(1.01752 0.00498659 0)
(1.0207 0.0119502 0)
(1.02728 0.0182978 0)
(1.03723 0.0240742 0)
(1.05084 0.0291546 0)
(1.06781 0.0345463 0)
(1.07884 0.0388862 0)
(1.04845 0.0403486 0)
(0.845263 0.032324 0)
(0.307074 0.00449962 0)
(0.266981 0.000165136 0)
(0.791483 -0.0193755 0)
(1.03386 -0.0301482 0)
(1.08347 -0.0307702 0)
(1.07739 -0.0279689 0)
(1.06106 -0.0234767 0)
(1.04706 -0.0191329 0)
(1.0357 -0.0143363 0)
(1.02772 -0.00872768 0)
(1.02346 -0.00203487 0)
(1.02318 0.00506965 0)
(1.027 0.0115717 0)
(1.03467 0.0168912 0)
(1.04597 0.0213154 0)
(1.05967 0.0252764 0)
(1.07592 0.0294588 0)
(1.08176 0.031922 0)
(1.03157 0.0309997 0)
(0.788042 0.0197669 0)
(0.263996 -8.29098e-05 0)
(0.244327 0.0012614 0)
(0.743726 -0.0115914 0)
(1.01561 -0.0233085 0)
(1.08335 -0.0247959 0)
(1.08193 -0.0228141 0)
(1.06705 -0.0191909 0)
(1.05376 -0.0157324 0)
(1.04304 -0.0115097 0)
(1.03503 -0.00670421 0)
(1.03017 -0.000973799 0)
(1.02987 0.00478545 0)
(1.03418 0.0102688 0)
(1.04175 0.0146809 0)
(1.05184 0.018459 0)
(1.06514 0.0215295 0)
(1.07979 0.0247804 0)
(1.08073 0.0263937 0)
(1.01186 0.0244662 0)
(0.738477 0.0120976 0)
(0.240348 -0.00115195 0)
(0.231299 0.00115127 0)
(0.702818 -0.00727092 0)
(0.996185 -0.019275 0)
(1.08161 -0.0211963 0)
(1.08491 -0.0192641 0)
(1.07137 -0.0162182 0)
(1.05836 -0.0128947 0)
(1.04834 -0.00897999 0)
(1.04077 -0.00469932 0)
(1.03607 5.86619e-05 0)
(1.03564 0.00470292 0)
(1.03952 0.00909333 0)
(1.04632 0.0128472 0)
(1.05622 0.0161764 0)
(1.06888 0.0191031 0)
(1.08194 0.0216156 0)
(1.07806 0.0231327 0)
(0.991005 0.0206513 0)
(0.695513 0.00785107 0)
(0.226211 -0.0010058 0)
(0.223935 0.000722543 0)
(0.670863 -0.00401649 0)
(0.977738 -0.0147885 0)
(1.07941 -0.0169328 0)
(1.0875 -0.0154963 0)
(1.0746 -0.0131399 0)
(1.06119 -0.0102396 0)
(1.05095 -0.00690371 0)
(1.0434 -0.00318022 0)
(1.03887 0.000851247 0)
(1.03813 0.0051136 0)
(1.04144 0.00878151 0)
(1.04823 0.0119585 0)
(1.05784 0.0148207 0)
(1.07082 0.0167554 0)
(1.08343 0.0185933 0)
(1.07433 0.0194504 0)
(0.970259 0.0164383 0)
(0.661162 0.00472876 0)
(0.21744 -0.000537875 0)
(0.220877 0.000400873 0)
(0.650699 -0.0012743 0)
(0.96219 -0.00914623 0)
(1.07647 -0.0113836 0)
(1.08966 -0.0107895 0)
(1.07737 -0.00905899 0)
(1.0635 -0.00720412 0)
(1.05262 -0.0047503 0)
(1.04476 -0.00165787 0)
(1.04023 0.00190089 0)
(1.03939 0.00594448 0)
(1.04256 0.00891238 0)
(1.04938 0.0112265 0)
(1.05917 0.0123915 0)
(1.07288 0.0136645 0)
(1.08422 0.0146091 0)
(1.06958 0.0143053 0)
(0.952063 0.0110778 0)
(0.638199 0.00213085 0)
(0.212624 -0.000225514 0)
(0.220559 0.000188289 0)
(0.640507 0.000158402 0)
(0.95032 -0.00451793 0)
(1.07338 -0.00647346 0)
(1.0913 -0.00649118 0)
(1.08049 -0.00528064 0)
(1.06665 -0.00385822 0)
(1.05577 -0.00217967 0)
(1.04759 0.000166099 0)
(1.04267 0.00301677 0)
(1.04151 0.00634721 0)
(1.04438 0.00846314 0)
(1.05105 0.00989153 0)
(1.06149 0.0106321 0)
(1.07448 0.0110238 0)
(1.08395 0.0110964 0)
(1.06402 0.0100293 0)
(0.937403 0.00684967 0)
(0.624874 0.000864667 0)
(0.210193 2.19363e-05 0)
(0.221409 1.36098e-06 0)
(0.636803 0.000635215 0)
(0.943508 -0.0017623 0)
(1.07112 -0.00360493 0)
(1.09255 -0.00385724 0)
(1.08307 -0.00300633 0)
(1.07001 -0.00184034 0)
(1.05971 -0.000106433 0)
(1.0519 0.00213357 0)
(1.04694 0.00467569 0)
(1.04535 0.00731129 0)
(1.04751 0.00898316 0)
(1.05328 0.00988601 0)
(1.06195 0.0107098 0)
(1.07402 0.00994267 0)
(1.08271 0.00932505 0)
(1.05887 0.00794057 0)
(0.926733 0.0048309 0)
(0.617293 0.000772103 0)
(0.208587 0.000169452 0)
(0.222768 4.57541e-05 0)
(0.636657 0.000901438 0)
(0.939394 -0.000215734 0)
(1.06909 -0.00157664 0)
(1.09264 -0.00186796 0)
(1.08404 -0.00150486 0)
(1.07168 -0.000715004 0)
(1.06185 0.00110611 0)
(1.05449 0.0033966 0)
(1.04965 0.00619339 0)
(1.04763 0.00876653 0)
(1.04903 0.0105074 0)
(1.05394 0.011154 0)
(1.06156 0.0110893 0)
(1.07301 0.0101236 0)
(1.07999 0.00924631 0)
(1.0531 0.0073129 0)
(0.91747 0.00410815 0)
(0.610954 0.000990019 0)
(0.206349 0.00024158 0)
(0.224602 0.000268019 0)
(0.637542 0.00120515 0)
(0.936304 0.00109362 0)
(1.06714 1.64768e-05 0)
(1.09201 -0.000489966 0)
(1.08411 -0.00027012 0)
(1.07228 0.000656097 0)
(1.06269 0.00257122 0)
(1.0553 0.00499574 0)
(1.05025 0.00809595 0)
(1.04787 0.010721 0)
(1.0488 0.0125502 0)
(1.05312 0.012986 0)
(1.06038 0.0122052 0)
(1.07079 0.0110422 0)
(1.07593 0.00922668 0)
(1.04687 0.00656979 0)
(0.909622 0.00337655 0)
(0.605958 0.000954608 0)
(0.204239 0.000228279 0)
(0.22783 0.00041288 0)
(0.640696 0.00158745 0)
(0.936036 0.00249597 0)
(1.06531 0.00182234 0)
(1.09133 0.00129526 0)
(1.08492 0.00130167 0)
(1.07407 0.00221536 0)
(1.06499 0.00420476 0)
(1.05765 0.00689689 0)
(1.0521 0.010247 0)
(1.04897 0.0129118 0)
(1.049 0.0146946 0)
(1.05225 0.0149445 0)
(1.05834 0.014225 0)
(1.06723 0.0125451 0)
(1.07049 0.0100149 0)
(1.03944 0.00676121 0)
(0.901582 0.00334882 0)
(0.600626 0.00111325 0)
(0.201855 0.000262895 0)
(0.231204 0.00041388 0)
(0.644797 0.00190167 0)
(0.937257 0.00351903 0)
(1.06403 0.00316338 0)
(1.09097 0.00278502 0)
(1.08631 0.00292242 0)
(1.07691 0.00439484 0)
(1.06862 0.00680128 0)
(1.0614 0.00986894 0)
(1.05527 0.0133759 0)
(1.05115 0.0159682 0)
(1.05004 0.0174387 0)
(1.05193 0.01737 0)
(1.0567 0.0162599 0)
(1.06335 0.0139932 0)
(1.0644 0.0108466 0)
(1.03144 0.00709365 0)
(0.893889 0.00367364 0)
(0.595527 0.00147943 0)
(0.1992 0.000340143 0)
(0.236285 0.000498173 0)
(0.652945 0.00243254 0)
(0.940633 0.00451125 0)
(1.06413 0.00504806 0)
(1.09099 0.0049886 0)
(1.08792 0.00536984 0)
(1.07996 0.00707552 0)
(1.07235 0.00980348 0)
(1.06519 0.0133231 0)
(1.05851 0.0170073 0)
(1.05334 0.0196013 0)
(1.05103 0.0206058 0)
(1.05139 0.0201054 0)
(1.0545 0.0184397 0)
(1.05876 0.0158535 0)
(1.05764 0.012311 0)
(1.02322 0.00839923 0)
(0.885967 0.00471145 0)
(0.588868 0.00203014 0)
(0.195373 0.000446451 0)
(0.24104 0.000627236 0)
(0.659166 0.00283537 0)
(0.944559 0.00547467 0)
(1.06562 0.00670482 0)
(1.09206 0.00746983 0)
(1.09011 0.008721 0)
(1.08319 0.0110752 0)
(1.07584 0.0143306 0)
(1.06831 0.0181637 0)
(1.06065 0.021901 0)
(1.05413 0.0242979 0)
(1.05036 0.0246418 0)
(1.04921 0.0234579 0)
(1.05057 0.0210317 0)
(1.05276 0.0176833 0)
(1.04957 0.0135128 0)
(1.01362 0.00916535 0)
(0.876448 0.0053942 0)
(0.580796 0.00245479 0)
(0.190692 0.000535932 0)
(0.248981 0.000857151 0)
(0.671773 0.00390769 0)
(0.95274 0.00768724 0)
(1.06905 0.00994568 0)
(1.09445 0.0114323 0)
(1.09339 0.0133334 0)
(1.08715 0.0162664 0)
(1.07989 0.0199184 0)
(1.07172 0.0239919 0)
(1.0628 0.0276044 0)
(1.05467 0.0294816 0)
(1.04928 0.0288994 0)
(1.04664 0.026639 0)
(1.04628 0.0233728 0)
(1.04661 0.0193847 0)
(1.04171 0.0150947 0)
(1.00483 0.0108118 0)
(0.867517 0.0067181 0)
(0.571607 0.00303597 0)
(0.184951 0.000636935 0)
(0.257069 0.00111948 0)
(0.68321 0.00462059 0)
(0.96162 0.00927479 0)
(1.07484 0.0125606 0)
(1.09935 0.015629 0)
(1.09844 0.0189057 0)
(1.09237 0.0228096 0)
(1.08466 0.0272274 0)
(1.07547 0.0317354 0)
(1.06489 0.0352231 0)
(1.05469 0.0363704 0)
(1.04721 0.0347398 0)
(1.04272 0.0313812 0)
(1.04044 0.0271871 0)
(1.03899 0.0224092 0)
(1.03235 0.0172953 0)
(0.993578 0.0122516 0)
(0.854637 0.00775701 0)
(0.559304 0.00358691 0)
(0.177916 0.000757662 0)
(0.270055 0.00148574 0)
(0.702871 0.00664148 0)
(0.976224 0.0129269 0)
(1.08393 0.0176759 0)
(1.10628 0.0214789 0)
(1.10522 0.0258053 0)
(1.09871 0.0308313 0)
(1.09006 0.0361292 0)
(1.07928 0.0410105 0)
(1.06648 0.0442921 0)
(1.05384 0.044466 0)
(1.04413 0.0414657 0)
(1.03784 0.0366971 0)
(1.03391 0.0312528 0)
(1.03089 0.0255686 0)
(1.02295 0.020243 0)
(0.983303 0.0150808 0)
(0.843539 0.00991805 0)
(0.546622 0.00451421 0)
(0.169773 0.000911107 0)
(0.284856 0.00208421 0)
(0.724653 0.00790133 0)
(0.993225 0.0158927 0)
(1.09583 0.0221847 0)
(1.1162 0.0279689 0)
(1.11413 0.0344609 0)
(1.10644 0.0408846 0)
(1.09613 0.0472617 0)
(1.08309 0.0526904 0)
(1.06763 0.0556956 0)
(1.05215 0.0547048 0)
(1.03989 0.050202 0)
(1.03147 0.0440566 0)
(1.02576 0.0374944 0)
(1.0213 0.0308684 0)
(1.01168 0.0242696 0)
(0.968962 0.0178601 0)
(0.824527 0.0116212 0)
(0.52738 0.00531296 0)
(0.159125 0.00108581 0)
(0.306561 0.00297898 0)
(0.754426 0.0118523 0)
(1.0163 0.0217774 0)
(1.11211 0.0301199 0)
(1.12939 0.0374695 0)
(1.12562 0.0455041 0)
(1.11584 0.053537 0)
(1.10289 0.0611152 0)
(1.08675 0.0669529 0)
(1.06776 0.0693935 0)
(1.04879 0.0670692 0)
(1.03375 0.0608616 0)
(1.0233 0.052989 0)
(1.01592 0.0446021 0)
(1.00998 0.0365307 0)
(0.999017 0.0290895 0)
(0.954806 0.0218976 0)
(0.809236 0.0146498 0)
(0.509649 0.00662089 0)
(0.147737 0.00121822 0)
(0.337015 0.00411537 0)
(0.795354 0.014642 0)
(1.04657 0.0287748 0)
(1.13334 0.0398591 0)
(1.14656 0.0495486 0)
(1.13976 0.0605483 0)
(1.12671 0.0705236 0)
(1.11017 0.0790732 0)
(1.0902 0.0849573 0)
(1.06725 0.0864879 0)
(1.0447 0.0822839 0)
(1.0267 0.0738005 0)
(1.01377 0.0639924 0)
(1.00451 0.0542096 0)
(0.997007 0.0448035 0)
(0.983847 0.0358428 0)
(0.934894 0.0269494 0)
(0.78035 0.0175554 0)
(0.479327 0.00761378 0)
(0.131986 0.00139604 0)
(0.373433 0.00807684 0)
(0.844366 0.0243213 0)
(1.08449 0.0408028 0)
(1.15967 0.0551428 0)
(1.16803 0.0675914 0)
(1.15645 0.0814076 0)
(1.13905 0.0922778 0)
(1.11783 0.101291 0)
(1.09307 0.106559 0)
(1.0653 0.106392 0)
(1.03824 0.0998525 0)
(1.01691 0.0891724 0)
(1.00181 0.0772903 0)
(0.990758 0.0653376 0)
(0.981557 0.0541115 0)
(0.966156 0.0433702 0)
(0.913582 0.032697 0)
(0.757491 0.0217579 0)
(0.455238 0.00972258 0)
(0.117772 0.00138177 0)
(0.457505 0.0116502 0)
(0.922408 0.0342598 0)
(1.13468 0.0603407 0)
(1.19244 0.0779902 0)
(1.19398 0.0949283 5.90055e-35)
(1.17523 0.109958 -4.3283e-35)
(1.15177 0.121251 0)
(1.12476 0.129751 0)
(1.0946 0.133309 0)
(1.06187 0.130716 0)
(1.03085 0.121276 0)
(1.00643 0.10744 0)
(0.988362 0.0929408 0)
(0.974987 0.0791526 0)
(0.963737 0.0662026 0)
(0.94515 0.0540179 0)
(0.885655 0.0413637 0)
(0.7145 0.0271205 0)
(0.405108 0.0104113 0)
(0.0934309 0.00116969 0)
(0.523633 0.0267691 -8.7196e-21)
(1.01139 0.0587693 5.93807e-21)
(1.18975 0.092776 0)
(1.22838 0.114059 2.30348e-22)
(1.2205 0.133843 -1.86663e-22)
(1.19357 0.148299 4.56654e-35)
(1.16349 0.158662 0)
(1.13031 0.165305 4.52066e-21)
(1.09416 0.166465 -1.63237e-20)
(1.05536 0.160852 3.62885e-21)
(1.01858 0.147816 0)
(0.98952 0.131188 -1.21147e-20)
(0.968813 0.1147 -1.52047e-20)
(0.952996 0.0987584 2.67484e-20)
(0.938487 0.0838721 -2.15365e-20)
(0.914246 0.0689608 0)
(0.843412 0.052681 -8.30997e-21)
(0.658662 0.0348393 0)
(0.357346 0.0161535 -4.48927e-20)
(0.0759001 0.00206297 5.32058e-20)
(0.551232 0.0546069 1.2914e-22)
(1.06282 0.10275 -4.86482e-20)
(1.23321 0.144693 1.23812e-20)
(1.2613 0.163028 1.94982e-20)
(1.24432 0.181993 3.55806e-22)
(1.20977 0.194316 1.9248e-22)
(1.17313 0.202824 0)
(1.13349 0.207347 0)
(1.09089 0.206198 2.54963e-20)
(1.04596 0.197908 0)
(1.00429 0.182486 4.14416e-20)
(0.971223 0.16383 1.29974e-20)
(0.944852 0.145058 3.51818e-22)
(0.923851 0.127851 -3.00738e-20)
(0.905432 0.111985 0)
(0.877607 0.0972755 0)
(0.80515 0.0784477 -1.4065e-19)
(0.628447 0.0572911 3.53161e-19)
(0.345337 0.0277966 -2.09917e-19)
(0.0759348 0.00742219 -2.49541e-19)
(0.554025 0.0803006 8.22772e-20)
(1.09132 0.160995 -2.42363e-20)
(1.26548 0.207496 -6.55204e-21)
(1.28755 0.222759 -3.71981e-20)
(1.26297 0.238348 1.36878e-20)
(1.22219 0.246623 4.76895e-21)
(1.1795 0.25184 2.51662e-21)
(1.13367 0.253363 0)
(1.08502 0.249274 -5.26575e-20)
(1.03409 0.23805 5.98411e-20)
(0.985741 0.219787 -1.13394e-19)
(0.946183 0.198404 5.54747e-20)
(0.917565 0.179266 -4.13202e-20)
(0.895037 0.161813 9.03118e-20)
(0.873563 0.145957 0)
(0.844085 0.130737 -3.56646e-20)
(0.774847 0.112932 0)
(0.612782 0.0834923 2.03278e-19)
(0.348554 0.0474307 -4.82461e-19)
(0.0886485 0.0124414 3.02836e-19)
(0.541711 0.112187 -3.86719e-19)
(1.10529 0.220172 1.54656e-19)
(1.28505 0.275106 2.50512e-20)
(1.30518 0.287697 0)
(1.27552 0.299372 2.07735e-20)
(1.23002 0.302979 -2.27945e-20)
(1.18211 0.304285 -2.56031e-21)
(1.13086 0.302078 0)
(1.07693 0.294277 3.71163e-20)
(1.0207 0.27934 -4.10015e-20)
(0.96818 0.257567 9.97302e-20)
(0.926651 0.235473 0)
(0.893029 0.215072 -8.69544e-20)
(0.865691 0.197578 4.78001e-20)
(0.842863 0.181742 1.30707e-19)
(0.814073 0.166931 -1.14999e-19)
(0.749968 0.147355 1.90743e-19)
(0.602904 0.11388 -4.23945e-19)
(0.359384 0.0681426 2.69193e-19)
(0.100643 0.0200258 -3.37808e-19)
(0.5241 0.136406 2.37586e-19)
(1.10676 0.275382 -1.75055e-19)
(1.29451 0.342798 7.8354e-20)
(1.31444 0.353358 -1.08434e-19)
(1.28129 0.361684 7.36874e-20)
(1.23257 0.360967 -1.2646e-20)
(1.18073 0.358311 3.68543e-21)
(1.12538 0.35206 -2.22352e-20)
(1.06713 0.340349 -3.67585e-20)
(1.00618 0.321782 -8.8132e-20)
(0.949035 0.29805 -2.15326e-19)
(0.902437 0.272923 -7.30137e-20)
(0.867975 0.251301 2.73799e-21)
(0.841618 0.233111 -1.72999e-19)
(0.818088 0.217484 -6.33071e-21)
(0.789443 0.201351 1.69074e-19)
(0.730599 0.181122 -5.2651e-20)
(0.595885 0.144104 -3.08158e-20)
(0.366554 0.0895375 0)
(0.108242 0.0273069 7.24369e-19)
(0.504578 0.158006 0)
(1.09799 0.32644 5.40089e-20)
(1.29613 0.407093 0)
(1.31742 0.417288 -1.21952e-20)
(1.28174 0.423456 -8.89975e-20)
(1.23072 0.418807 2.05096e-20)
(1.17591 0.41241 -1.01225e-21)
(1.11727 0.402201 4.07903e-20)
(1.05518 0.38672 -2.23581e-20)
(0.990085 0.36458 3.81293e-20)
(0.92899 0.336477 1.16217e-19)
(0.880624 0.309071 1.61896e-19)
(0.844051 0.286372 -1.01417e-19)
(0.815182 0.267009 1.87677e-19)
(0.792719 0.250524 -1.50925e-19)
(0.767431 0.235463 0)
(0.714602 0.214498 -4.03648e-19)
(0.589364 0.17442 5.4261e-19)
(0.36929 0.109345 4.1098e-20)
(0.111704 0.0339818 -7.67659e-19)
(0.488582 0.178679 -5.5587e-21)
(1.08783 0.375605 -1.41745e-19)
(1.29275 0.468354 -4.28267e-19)
(1.31528 0.478538 2.3745e-19)
(1.27745 0.483271 -5.3331e-20)
(1.22496 0.475232 2.97959e-20)
(1.16799 0.465523 -1.50627e-20)
(1.10677 0.451722 -1.33919e-21)
(1.04159 0.432639 -7.68155e-20)
(0.973319 0.406904 8.29405e-22)
(0.910455 0.37573 -1.26755e-19)
(0.861583 0.346826 -1.72519e-19)
(0.825474 0.321922 1.14481e-19)
(0.798268 0.301421 -6.75134e-20)
(0.773797 0.284368 1.64443e-19)
(0.746457 0.267057 0)
(0.694955 0.243949 -2.50343e-19)
(0.576522 0.201349 3.70346e-19)
(0.364642 0.126948 7.09462e-19)
(0.110917 0.0388637 -8.33273e-19)
(0.473438 0.196724 -6.98737e-19)
(1.07364 0.420999 3.53134e-19)
(1.2856 0.52635 2.76219e-19)
(1.30937 0.537092 -2.57515e-19)
(1.2699 0.540665 1.12036e-20)
(1.2164 0.529554 7.85516e-20)
(1.15775 0.516956 1.5422e-21)
(1.09454 0.499885 -1.50218e-20)
(1.02711 0.477433 -4.81901e-20)
(0.956577 0.447809 8.50957e-20)
(0.891035 0.412955 1.18924e-19)
(0.83835 0.379063 2.70247e-19)
(0.799171 0.351759 0)
(0.768766 0.329153 5.50551e-21)
(0.747685 0.311211 -4.57985e-19)
(0.725971 0.296483 1.05135e-19)
(0.680653 0.272971 5.38064e-19)
(0.566156 0.225149 -1.57867e-19)
(0.354712 0.141529 3.36372e-19)
(0.107455 0.0422263 -2.79814e-20)
(0.463785 0.215555 6.26979e-21)
(1.06098 0.464957 3.26447e-19)
(1.27592 0.581605 2.09413e-19)
(1.30045 0.592689 -4.57896e-19)
(1.25958 0.59498 2.94138e-19)
(1.20552 0.581235 -9.59653e-20)
(1.14566 0.566235 -5.13587e-21)
(1.08091 0.546296 2.88859e-20)
(1.01143 0.520783 8.32859e-20)
(0.938187 0.488007 -1.11106e-19)
(0.869896 0.449906 0)
(0.818282 0.414513 -1.07116e-19)
(0.782174 0.386061 1.22978e-19)
(0.755976 0.363257 1.6662e-19)
(0.730084 0.343456 -9.55177e-20)
(0.703579 0.3228 -2.42051e-19)
(0.656682 0.296672 -7.36339e-20)
(0.546974 0.243766 -1.21457e-21)
(0.342512 0.152036 0)
(0.10213 0.0450872 0)
(0.454859 0.23104 -3.44629e-19)
(1.04715 0.505714 0)
(1.26442 0.633617 2.39554e-19)
(1.2899 0.645623 -1.10015e-19)
(1.24793 0.64657 -3.06202e-19)
(1.19334 0.630225 8.43754e-20)
(1.13239 0.61311 -1.14619e-20)
(1.06636 0.59071 -1.07483e-20)
(0.995185 0.562489 5.01902e-20)
(0.920178 0.526586 -4.69687e-20)
(0.850241 0.484406 6.66561e-20)
(0.795127 0.444942 3.34306e-19)
(0.753121 0.411853 1.34095e-20)
(0.72107 0.384556 -1.69863e-19)
(0.701956 0.36197 3.29443e-19)
(0.682946 0.346656 4.46709e-21)
(0.641832 0.317445 7.87802e-20)
(0.532412 0.261907 -3.83366e-19)
(0.329031 0.160439 3.88493e-19)
(0.0959761 0.0468596 -4.64198e-19)
(0.448352 0.250514 2.80045e-23)
(1.03484 0.545248 0)
(1.25207 0.68277 0)
(1.27789 0.695818 1.03016e-19)
(1.23498 0.695357 1.19597e-19)
(1.18009 0.676579 -7.10088e-20)
(1.11823 0.657564 4.93065e-20)
(1.05106 0.632975 0)
(0.978255 0.60241 -8.3776e-20)
(0.900846 0.563876 1.62651e-19)
(0.828114 0.519389 2.05128e-19)
(0.771523 0.477143 -1.26373e-19)
(0.733749 0.442137 -1.59067e-19)
(0.709033 0.414536 3.76542e-19)
(0.684642 0.392633 -1.16506e-19)
(0.659157 0.366661 -1.41688e-19)
(0.614556 0.336784 -8.68381e-20)
(0.509771 0.27406 -4.16059e-19)
(0.314016 0.166594 5.84053e-20)
(0.0890777 0.0475731 5.04647e-19)
(0.44468 0.269406 -1.37605e-19)
(1.02295 0.581968 -2.17535e-19)
(1.23905 0.728461 2.37023e-20)
(1.26537 0.743149 9.10425e-23)
(1.2218 0.741627 4.01166e-20)
(1.16652 0.720544 -1.87988e-19)
(1.10372 0.699711 0)
(1.03551 0.673116 1.07368e-20)
(0.961302 0.640595 -8.46622e-21)
(0.881895 0.599584 2.55186e-19)
(0.806563 0.551264 -5.2033e-20)
(0.748697 0.504526 5.74885e-20)
(0.707009 0.466142 0)
(0.673199 0.43399 -2.05766e-19)
(0.653735 0.405886 2.572e-19)
(0.636555 0.386235 0)
(0.597799 0.350851 -1.90341e-19)
(0.491332 0.286232 5.56519e-19)
(0.297903 0.170739 6.62846e-20)
(0.0817424 0.0472096 -6.25534e-19)
(0.44268 0.286388 -3.05156e-19)
(1.01272 0.617322 3.9147e-19)
(1.22598 0.77155 0)
(1.25221 0.787636 2.56024e-19)
(1.20802 0.785162 0)
(1.15256 0.762134 1.7707e-19)
(1.08905 0.739655 0)
(1.01987 0.71124 0)
(0.944067 0.676979 -2.99796e-20)
(0.862418 0.63403 -2.49554e-19)
(0.784886 0.583888 -3.81821e-19)
(0.725476 0.535131 7.32825e-20)
(0.682968 0.491918 2.75031e-19)
(0.659104 0.457773 2.32036e-19)
(0.636134 0.430409 -8.25413e-19)
(0.611487 0.401387 -3.41969e-19)
(0.568518 0.366201 1.98716e-19)
(0.465799 0.293173 0)
(0.280386 0.172604 5.74071e-19)
(0.0737197 0.0458491 -6.79026e-19)
(0.441141 0.30211 3.36432e-19)
(1.00224 0.649763 -4.30106e-19)
(1.21281 0.811337 0)
(1.23905 0.82925 -1.02069e-20)
(1.19444 0.826182 -1.05409e-19)
(1.13878 0.801451 0)
(1.07461 0.77752 -1.58166e-20)
(1.00454 0.747467 1.83949e-20)
(0.927499 0.711738 -3.46939e-20)
(0.844251 0.667245 2.35498e-20)
(0.763908 0.614396 0)
(0.700535 0.560897 2.91838e-19)
(0.657177 0.515605 3.88555e-21)
(0.621541 0.476074 1.26116e-19)
(0.603417 0.442339 1.5225e-19)
(0.587509 0.417155 0)
(0.549439 0.372646 -3.36244e-19)
(0.445495 0.29926 6.59064e-19)
(0.26228 0.172259 -7.01819e-19)
(0.0658595 0.0434167 1.47487e-18)
(0.439814 0.317061 0)
(0.993016 0.68144 0)
(1.19999 0.8489 -2.36464e-19)
(1.22573 0.868133 0)
(1.18065 0.864448 0)
(1.12499 0.838444 2.52436e-19)
(1.06042 0.813332 -1.97318e-20)
(0.989764 0.781915 1.68869e-20)
(0.91165 0.745023 -9.61787e-22)
(0.82663 0.699226 0)
(0.743993 0.644503 -6.16384e-20)
(0.6782 0.589689 -2.42247e-19)
(0.630322 0.540201 -3.05267e-19)
(0.604989 0.497856 -1.27282e-19)
(0.582472 0.463616 1.67808e-19)
(0.559602 0.424511 -3.98801e-19)
(0.518436 0.385181 7.28128e-19)
(0.417603 0.300754 7.10475e-21)
(0.243308 0.169683 -6.79272e-19)
(0.0580089 0.0402939 -1.00826e-19)
(0.438356 0.331648 0)
(0.983566 0.710664 -3.35059e-19)
(1.18733 0.883677 2.63817e-19)
(1.21271 0.904458 0)
(1.16732 0.9003 0)
(1.11167 0.87316 -5.57459e-19)
(1.04682 0.847093 0)
(0.975634 0.814545 0)
(0.896461 0.77656 -5.38966e-20)
(0.809077 0.729431 4.78682e-20)
(0.722284 0.673169 -4.86585e-19)
(0.652334 0.616022 0)
(0.604134 0.562978 -3.31854e-19)
(0.564589 0.514038 1.16042e-20)
(0.54545 0.46871 -5.36558e-19)
(0.532871 0.436797 2.16264e-19)
(0.497808 0.381527 3.8353e-21)
(0.397941 0.298961 -7.78747e-19)
(0.226049 0.165386 3.69417e-19)
(0.0521728 0.0371454 1.07872e-19)
(0.436987 0.345757 0)
(0.975302 0.739284 -3.94621e-19)
(1.17517 0.916694 2.80705e-19)
(1.19983 0.938454 5.91103e-19)
(1.15407 0.933633 1.20625e-19)
(1.09856 0.905594 -8.43202e-20)
(1.03356 0.878775 5.28248e-20)
(0.962001 0.845331 -1.10109e-19)
(0.881737 0.806635 5.7654e-20)
(0.79253 0.759389 2.84013e-19)
(0.70408 0.703597 4.03537e-19)
(0.631067 0.644295 7.82564e-20)
(0.575352 0.586109 4.82244e-19)
(0.54578 0.534534 3.1466e-19)
(0.522595 0.489348 3.87633e-19)
(0.500516 0.436679 -2.42734e-19)
(0.463721 0.387165 -2.87755e-19)
(0.369111 0.293456 3.39028e-19)
(0.206883 0.156094 -2.00233e-19)
(0.0478594 0.0356637 3.52696e-19)
(0.435539 0.359371 5.19444e-19)
(0.966835 0.765419 6.26771e-19)
(1.16326 0.947234 1.54019e-19)
(1.18743 0.970241 1.60312e-20)
(1.14145 0.964861 -4.18142e-19)
(1.08601 0.935928 1.61454e-19)
(1.02084 0.90843 -6.02472e-20)
(0.948881 0.874288 -2.12578e-20)
(0.867862 0.835008 -4.49576e-20)
(0.77751 0.786913 -3.18709e-19)
(0.686605 0.728929 2.37196e-20)
(0.608826 0.667031 0)
(0.551388 0.610576 0)
(0.501955 0.552868 -1.59648e-19)
(0.478029 0.492659 -6.38359e-19)
(0.466215 0.444003 5.26877e-19)
(0.439916 0.365691 3.22715e-19)
(0.35894 0.272734 0)
(0.209897 0.135103 6.39074e-19)
(0.0425965 0.0171669 -3.82383e-19)
(0.434245 0.372208 -2.77524e-19)
(0.959393 0.790929 2.39732e-19)
(1.15188 0.976277 -3.43412e-19)
(1.17531 1.00002 -3.70758e-19)
(1.12907 0.993922 -1.64605e-19)
(1.07379 0.964208 3.89502e-20)
(1.00854 0.936179 0)
(0.93638 0.901497 1.57824e-19)
(0.854723 0.86183 9.34995e-21)
(0.762142 0.814093 0)
(0.665782 0.758338 0)
(0.582726 0.698255 5.51971e-20)
(0.5186 0.634847 8.54497e-20)
(0.481158 0.573355 -1.72208e-19)
(0.449771 0.516281 4.61764e-19)
(0.42414 0.436165 -5.80425e-19)
(0.393508 0.36048 -6.94122e-19)
(0.336332 0.249353 6.16314e-19)
(0.23485 0.149767 -2.30567e-19)
(0.125331 0.0949611 1.32121e-19)
(0.432677 0.384259 3.19973e-19)
(0.951609 0.813912 0)
(1.14077 1.00298 0)
(1.16373 1.0278 -1.25006e-19)
(1.11738 1.02117 1.01179e-19)
(1.06222 0.990696 -2.05778e-20)
(0.99693 0.962122 -2.29369e-19)
(0.924614 0.926965 -2.38319e-19)
(0.842204 0.887183 2.90665e-20)
(0.748714 0.839307 -2.60432e-20)
(0.653642 0.781746 6.37519e-20)
(0.569395 0.720806 -4.51215e-19)
(0.499127 0.66339 -5.01196e-19)
(0.434231 0.59855 -9.18135e-20)
(0.393305 0.520287 0)
(0.371314 0.449873 -1.29709e-20)
(0.350128 0.312582 3.82442e-19)
(0.309485 0.154092 -6.46005e-19)
(0.272183 -0.00939573 4.78255e-19)
(0.0825926 -0.0836643 3.81359e-19)
(0.431235 0.395645 -6.97358e-19)
(0.944671 0.836457 -3.00745e-19)
(1.13011 1.0285 6.26121e-21)
(1.15239 1.054 1.58649e-19)
(1.10589 1.0468 0)
(1.05091 1.01575 4.77128e-19)
(0.985589 0.986841 2.86188e-19)
(0.913101 0.951501 -4.63106e-20)
(0.830401 0.911749 -5.8908e-22)
(0.735527 0.864264 -2.43579e-20)
(0.634067 0.810093 2.26238e-20)
(0.541089 0.753173 3.99113e-19)
(0.463043 0.688789 4.89931e-19)
(0.412198 0.621938 8.84546e-20)
(0.36364 0.557543 4.91342e-19)
(0.306513 0.446923 0)
(0.211807 0.312909 0)
(0.0540853 0.296613 4.79338e-19)
(-0.0630915 0.630829 -3.34771e-20)
(-0.000359286 1.49288 -6.17445e-19)
(0.429333 0.406438 3.79452e-19)
(0.937382 0.856758 9.02771e-19)
(1.11964 1.05209 -1.35899e-18)
(1.14146 1.07872 8.20364e-19)
(1.09489 1.07129 -9.64434e-20)
(1.04006 1.03989 6.21207e-19)
(0.974763 1.01084 0)
(0.902277 0.975468 2.44678e-19)
(0.818936 0.936013 0)
(0.722549 0.889702 2.16613e-19)
(0.621617 0.835517 -3.65733e-20)
(0.528157 0.778102 4.10079e-20)
(0.449022 0.723751 5.41779e-19)
(0.360823 0.663838 -2.01496e-19)
(0.277057 0.579079 -2.57946e-19)
(0.209176 0.512201 0)
(0.110647 0.597928 0)
(0.0424734 1.23495 0)
(0.0806103 2.4194 -2.69597e-19)
(0.112227 2.88937 -1.67304e-19)
(0.42755 0.416852 0)
(0.930909 0.876752 0)
(1.10965 1.07476 4.86188e-19)
(1.13081 1.1021 -6.83937e-19)
(1.08414 1.09441 4.70683e-19)
(1.02951 1.06284 -5.69496e-19)
(0.964251 1.03384 -3.31664e-20)
(0.89158 0.998701 2.58236e-20)
(0.80792 0.959953 3.81045e-21)
(0.711043 0.914422 -2.45799e-19)
(0.606066 0.863156 5.4753e-20)
(0.50744 0.812767 3.73003e-19)
(0.410545 0.759101 -5.33432e-19)
(0.340626 0.69233 -6.28192e-19)
(0.275717 0.644255 2.20147e-19)
(0.210722 0.760854 0)
(0.14936 1.47977 3.18472e-19)
(0.148293 2.6636 3.57177e-19)
(0.152908 3.07794 -3.99752e-19)
(0.14376 3.21795 4.42442e-19)
(0.425384 0.426321 0)
(0.924088 0.894494 7.32958e-19)
(1.09986 1.09556 -1.26018e-19)
(1.12064 1.12406 8.60067e-19)
(1.07391 1.1164 -4.94054e-19)
(1.01946 1.08482 0)
(0.954242 1.05602 0)
(0.881665 1.02132 0)
(0.797795 0.983274 -9.20088e-20)
(0.699344 0.939891 6.28411e-22)
(0.592955 0.891816 0)
(0.488828 0.84105 -3.63348e-19)
(0.40724 0.793608 0)
(0.296025 0.750607 4.4658e-19)
(0.219801 0.828772 -2.89884e-19)
(0.174927 1.4354 -2.4395e-19)
(0.184223 2.65436 -6.01551e-19)
(0.203029 3.12507 -2.99139e-19)
(0.192545 3.27307 -3.39961e-19)
(0.177238 3.31453 2.97057e-19)
(0.423441 0.435237 -2.47495e-19)
(0.918046 0.912056 1.4884e-20)
(1.0906 1.11565 -1.35742e-19)
(1.11079 1.14487 -6.88483e-19)
(1.06396 1.13717 0)
(1.00972 1.10571 0)
(0.944591 1.07727 0)
(0.872001 1.04307 -1.69362e-20)
(0.787825 1.00619 1.0643e-19)
(0.689302 0.964266 0)
(0.581889 0.916969 0)
(0.483207 0.875542 0)
(0.3711 0.839455 0)
(0.31008 0.834168 2.91121e-19)
(0.288808 1.18049 7.63373e-19)
(0.282154 2.32072 2.39021e-19)
(0.292755 3.0791 4.31794e-19)
(0.284288 3.29333 -2.71032e-19)
(0.232876 3.36266 9.99668e-20)
(0.198261 3.37548 0)
(0.42112 0.443557 2.50768e-19)
(0.911425 0.927859 -1.58018e-18)
(1.08126 1.1345 -4.47898e-19)
(1.10117 1.16494 -1.09485e-19)
(1.0543 1.15743 1.26107e-19)
(1.00024 1.12618 -8.91652e-19)
(0.935174 1.09811 6.06208e-20)
(0.862678 1.06467 4.26282e-19)
(0.778692 1.02903 0)
(0.67953 0.989556 -1.38343e-20)
(0.570457 0.949513 1.25849e-20)
(0.458305 0.908747 0)
(0.379826 0.878204 0)
(0.331185 1.00218 -3.60965e-19)
(0.303516 1.81995 -4.05493e-21)
(0.299265 2.92171 -1.23867e-19)
(0.316648 3.29715 1.97765e-19)
(0.290024 3.40211 6.22237e-20)
(0.221132 3.42892 1.04682e-19)
(0.194549 3.43749 -5.4293e-20)
(0.418756 0.451932 4.83042e-19)
(0.904985 0.94514 1.5111e-18)
(1.07166 1.15444 5.50836e-19)
(1.09107 1.18555 0)
(1.04419 1.17801 0)
(0.990414 1.14688 6.83091e-19)
(0.925576 1.11925 -4.24621e-19)
(0.85349 1.0864 -3.91672e-19)
(0.769587 1.05181 -1.58086e-20)
(0.670406 1.0147 9.26167e-21)
(0.561331 0.97398 -2.43389e-19)
(0.460001 0.938538 0)
(0.380872 0.958078 0)
(0.354715 1.33406 -1.96635e-19)
(0.365433 2.42238 -2.58468e-19)
(0.408613 3.19788 0)
(0.436073 3.38777 8.04718e-20)
(0.365558 3.45473 2.16545e-19)
(0.288644 3.49987 -4.74053e-19)
(0.262789 3.52589 2.76158e-19)
(0.415425 0.460576 -9.15063e-19)
(0.897059 0.961808 -7.18828e-19)
(1.06095 1.17456 0)
(1.08024 1.20689 0)
(1.03347 1.19947 0)
(0.980046 1.16839 0)
(0.915491 1.14094 4.53708e-19)
(0.84364 1.10866 -5.02291e-19)
(0.760184 1.07563 0)
(0.661741 1.04069 -2.52651e-21)
(0.55436 1.00754 3.95025e-19)
(0.445972 0.984974 2.12786e-20)
(0.393442 1.05958 3.75617e-20)
(0.410227 1.70635 2.85745e-19)
(0.440249 2.86763 -7.54032e-20)
(0.476089 3.33163 0)
(0.456605 3.46646 -7.5004e-20)
(0.36478 3.55573 1.02924e-19)
(0.277077 3.62816 3.54746e-19)
(0.200019 3.60927 -3.11239e-19)
(0.41205 0.469529 4.33696e-19)
(0.889075 0.980948 -7.06222e-19)
(1.04959 1.19659 0)
(1.06849 1.22931 -1.75911e-19)
(1.02187 1.22165 6.68371e-19)
(0.968911 1.19044 0)
(0.90485 1.16323 0)
(0.83394 1.1315 9.3853e-19)
(0.751445 1.09902 1.67818e-20)
(0.653904 1.06631 -1.09935e-19)
(0.543789 1.03477 -1.62632e-19)
(0.458926 1.02414 1.33392e-19)
(0.429609 1.23249 0)
(0.462136 2.11487 -1.31587e-19)
(0.507247 3.13114 1.14262e-19)
(0.565986 3.44121 -4.64491e-20)
(0.56179 3.54807 0)