/*--------------------------------*- C++ -*----------------------------------*\
| =========                 |                                                 |
| \\      /  F ield         | OpenFOAM: The Open Source CFD Toolbox           |
|  \\    /   O peration     | Version:  v2012                                 |
|   \\  /    A nd           | Website:  www.openfoam.com                      |
|    \\/     M anipulation  |                                                 |
\*---------------------------------------------------------------------------*/
FoamFile
{
    version     2.0;
    format      ascii;
    class       volScalarField;
    location    "31";
    object      p;
}
// * * * * * * * * * * * * * * * * * * * * * * * * * * * * * * * * * * * * * //

dimensions      [0 2 -2 0 0 0 0];


internalField   nonuniform List<scalar> 
2200
(
1.1431
1.1216
1.10569
1.09002
1.0754
1.06287
1.0525
1.04437
1.03862
1.03558
1.03595
1.03965
1.04589
1.05436
1.06498
1.0777
1.09244
1.10828
1.12427
1.14578
1.07553
1.07227
1.06934
1.06522
1.05975
1.05327
1.04664
1.04066
1.03612
1.03364
1.03402
1.03719
1.04225
1.04861
1.05552
1.0622
1.06781
1.07193
1.07484
1.07816
1.03563
1.03585
1.03791
1.03926
1.03964
1.03878
1.03678
1.03405
1.03145
1.02987
1.03031
1.03262
1.03578
1.03893
1.04121
1.0422
1.04192
1.04081
1.03901
1.03877
1.01323
1.01468
1.01727
1.01971
1.02213
1.02412
1.02524
1.02543
1.02497
1.02455
1.02504
1.02629
1.02738
1.02767
1.02692
1.0252
1.02299
1.02074
1.01816
1.01673
0.998893
1.00086
1.00368
1.00651
1.00936
1.01216
1.0146
1.01644
1.01761
1.01829
1.01886
1.01916
1.01875
1.01748
1.01551
1.01304
1.0104
1.00765
1.00487
1.00293
0.991595
0.993184
0.995391
0.997933
1.0006
1.00325
1.0058
1.00816
1.0101
1.01148
1.01215
1.01195
1.01094
1.00927
1.00723
1.00498
1.00257
1.00018
0.998062
0.996488
0.988409
0.989432
0.990696
0.992548
0.994662
0.996782
0.998889
1.00106
1.00313
1.00479
1.00559
1.00537
1.0044
1.00306
1.00154
0.999881
0.998094
0.996459
0.99531
0.994292
0.985877
0.986547
0.987187
0.988504
0.990127
0.991806
0.993501
0.995312
0.997196
0.99892
0.999899
0.999943
0.999396
0.998573
0.997614
0.996475
0.995274
0.994234
0.993727
0.993057
0.982758
0.983183
0.983609
0.984668
0.985993
0.987417
0.98891
0.990517
0.992223
0.993924
0.995119
0.995559
0.9955
0.995146
0.994578
0.993843
0.993021
0.992296
0.992016
0.991579
0.979114
0.97939
0.979791
0.980742
0.98194
0.983271
0.984713
0.986248
0.987869
0.989579
0.991044
0.991955
0.992333
0.992338
0.992034
0.991543
0.990942
0.990397
0.990167
0.989879
0.97492
0.975103
0.975505
0.976425
0.977632
0.979054
0.980642
0.982338
0.984105
0.985994
0.987823
0.989187
0.989914
0.990098
0.989896
0.98948
0.989005
0.988559
0.988347
0.988147
0.97018
0.970294
0.970681
0.971586
0.972868
0.974447
0.976316
0.978416
0.98068
0.983075
0.985342
0.986941
0.987771
0.987963
0.987808
0.987498
0.987111
0.986765
0.986589
0.986458
0.965138
0.965187
0.965573
0.966496
0.967806
0.96947
0.971489
0.973875
0.976662
0.979696
0.982457
0.984303
0.985295
0.985758
0.985901
0.985781
0.985543
0.9853
0.985175
0.985103
0.960023
0.960016
0.960415
0.961284
0.962639
0.964327
0.966344
0.968793
0.971825
0.975366
0.978796
0.98138
0.983055
0.984124
0.984705
0.984845
0.984805
0.984715
0.984648
0.984612
0.95492
0.954793
0.955248
0.956092
0.957497
0.959292
0.961451
0.964095
0.967387
0.971424
0.975682
0.979235
0.981783
0.983463
0.984398
0.984939
0.985186
0.985259
0.985244
0.985216
0.949514
0.949505
0.949796
0.950658
0.952285
0.954301
0.956851
0.960053
0.964024
0.968886
0.974105
0.97848
0.981602
0.983723
0.985132
0.986019
0.986495
0.986723
0.986783
0.986755
0.943391
0.943368
0.943729
0.944712
0.946426
0.948706
0.951734
0.955663
0.960616
0.966694
0.973142
0.97846
0.982248
0.984908
0.986817
0.988031
0.988754
0.989153
0.989284
0.98925
0.936136
0.936061
0.936508
0.937634
0.93947
0.942003
0.945455
0.950044
0.956024
0.963531
0.971571
0.978282
0.983182
0.986726
0.989247
0.990926
0.991999
0.992605
0.992818
0.992768
0.927425
0.927342
0.927796
0.929002
0.931085
0.934037
0.938083
0.943541
0.950727
0.959878
0.969846
0.978279
0.984549
0.989155
0.992455
0.994776
0.996326
0.997172
0.997455
0.997373
0.916665
0.916593
0.917146
0.918611
0.921143
0.924797
0.929867
0.936674
0.945582
0.956828
0.969006
0.979262
0.986952
0.992626
0.996779
0.999726
1.00169
1.00275
1.0031
1.00299
0.903571
0.903472
0.904183
0.90603
0.909246
0.913933
0.9204
0.92907
0.940338
0.95427
0.969046
0.981394
0.990621
0.997436
1.0024
1.00594
1.00834
1.00959
1.01
1.00987
0.886966
0.886903
0.887912
0.890351
0.894555
0.900647
0.909003
0.920137
0.934328
0.951529
0.969425
0.984265
0.995256
1.00345
1.00939
1.01362
1.01644
1.0179
1.01837
1.01821
0.865962
0.86583
0.867183
0.870511
0.876159
0.884345
0.895425
0.909758
0.927583
0.948686
0.970209
0.98792
1.001
1.01072
1.01782
1.02292
1.02629
1.028
1.02854
1.02831
0.838324
0.838416
0.840649
0.845432
0.85343
0.864792
0.879601
0.898193
0.920486
0.946132
0.971767
0.992635
1.00803
1.01945
1.02787
1.03391
1.03785
1.03983
1.04043
1.04015
0.801495
0.801838
0.805598
0.813438
0.825409
0.841557
0.861692
0.885713
0.913424
0.944364
0.974556
0.998777
1.01657
1.02979
1.03958
1.04666
1.05126
1.05355
1.05421
1.05384
0.752512
0.753016
0.760256
0.77314
0.791517
0.814867
0.841909
0.872588
0.906622
0.943439
0.978454
1.00619
1.02655
1.04169
1.05299
1.06119
1.0665
1.06899
1.06957
1.06913
0.687055
0.690043
0.705636
0.727271
0.754394
0.785984
0.820948
0.859141
0.900269
0.943681
0.984276
1.0163
1.03993
1.05769
1.07105
1.08101
1.08765
1.09054
1.091
1.09074
0.611878
0.621939
0.648148
0.679672
0.716616
0.757083
0.800039
0.84602
0.894593
0.945096
0.991935
1.02898
1.05661
1.07772
1.09395
1.10607
1.11465
1.11827
1.11889
1.11914
0.545534
0.561083
0.59389
0.633677
0.67978
0.728895
0.779956
0.833746
0.889585
0.946918
0.999715
1.04137
1.07251
1.09628
1.11454
1.12846
1.13793
1.1429
1.14434
1.14431
0.495653
0.509467
0.547526
0.593116
0.646256
0.702511
0.76093
0.821963
0.884675
0.948629
1.00718
1.05304
1.08699
1.11282
1.1329
1.14831
1.15841
1.16354
1.16489
1.16499
0.454695
0.467581
0.508945
0.558344
0.616716
0.678614
0.743296
0.81073
0.879802
0.949981
1.01359
1.06298
1.09929
1.12682
1.14767
1.16351
1.17421
1.17952
1.18112
1.18125
0.419227
0.43237
0.476152
0.528387
0.590808
0.657233
0.727148
0.800112
0.874821
0.950512
1.01876
1.07133
1.10955
1.13785
1.15926
1.17544
1.18642
1.19212
1.19392
1.19406
0.388273
0.401553
0.44727
0.501909
0.56767
0.637889
0.712231
0.78991
0.869541
0.950142
1.02258
1.0778
1.11748
1.14679
1.16869
1.18509
1.19652
1.20252
1.2045
1.20461
0.360349
0.373732
0.421095
0.477933
0.546618
0.620055
0.69812
0.779822
0.863804
0.948877
1.02526
1.0831
1.12415
1.15425
1.17676
1.19342
1.20492
1.21118
1.21301
1.21294
0.334812
0.348145
0.396764
0.455722
0.527055
0.60323
0.684485
0.769739
0.85772
0.94716
1.02736
1.08758
1.13016
1.16112
1.18391
1.20076
1.21217
1.21826
1.22025
1.2201
0.310754
0.324397
0.373895
0.434874
0.508488
0.587064
0.671133
0.759579
0.851187
0.944447
1.02805
1.09117
1.13563
1.1674
1.19068
1.20755
1.21887
1.22493
1.22689
1.22683
0.288076
0.301844
0.352176
0.414981
0.490618
0.571364
0.657913
0.74917
0.843891
0.940586
1.02838
1.09483
1.14093
1.17377
1.19735
1.21422
1.22559
1.23143
1.2335
1.23343
0.266626
0.280396
0.331406
0.395771
0.47316
0.555897
0.644687
0.738418
0.836101
0.936676
1.0286
1.09793
1.14627
1.18025
1.20417
1.22112
1.2324
1.23817
1.24003
1.24
0.24595
0.259921
0.311407
0.377066
0.455942
0.540509
0.631367
0.727407
0.827942
0.931856
1.02709
1.10008
1.15123
1.18663
1.21126
1.22828
1.23945
1.2449
1.24675
1.24664
0.225598
0.240187
0.292029
0.358783
0.438901
0.525104
0.617885
0.716095
0.819041
0.925937
1.02546
1.1023
1.15595
1.19329
1.21888
1.23591
1.24664
1.25189
1.25338
1.25322
0.205562
0.220967
0.27315
0.340876
0.422039
0.50969
0.604205
0.704369
0.809642
0.919612
1.02269
1.10282
1.16029
1.20044
1.22724
1.24429
1.25423
1.25866
1.25982
1.25959
0.185967
0.202119
0.254721
0.323375
0.405438
0.494318
0.590331
0.692272
0.799725
0.912112
1.01814
1.10287
1.16434
1.20758
1.23653
1.25385
1.26244
1.26551
1.26586
1.26565
0.166974
0.183671
0.236763
0.306316
0.389171
0.47907
0.576351
0.679833
0.789061
0.90361
1.01283
1.10166
1.16733
1.21495
1.24693
1.26542
1.27258
1.27177
1.27098
1.27158
0.148614
0.165714
0.219335
0.289739
0.373309
0.464055
0.562359
0.66708
0.777772
0.894319
1.00623
1.09868
1.16934
1.22185
1.25834
1.27943
1.28625
1.28114
1.27568
1.27354
0.130922
0.148353
0.202497
0.273688
0.357911
0.449348
0.54843
0.6541
0.766097
0.88434
0.998534
1.09437
1.16955
1.2279
1.27045
1.29657
1.30733
1.29629
1.29231
1.29693
0.113892
0.131653
0.186308
0.258197
0.343001
0.435002
0.534689
0.641119
0.754198
0.873835
0.989705
1.08827
1.16772
1.23194
1.28184
1.31593
1.33487
1.31228
1.26813
1.22632
0.0975865
0.115601
0.170719
0.243185
0.328462
0.420898
0.521033
0.628013
0.741791
0.862446
0.979752
1.08012
1.16269
1.23277
1.29105
1.33636
1.37068
1.37148
1.3894
1.44154
0.0820462
0.100149
0.155641
0.228507
0.314102
0.406804
0.50718
0.614406
0.728515
0.84974
0.967901
1.06885
1.15368
1.22765
1.29012
1.33826
1.36561
1.36087
1.32843
1.33825
0.067301
0.0853203
0.141111
0.214218
0.299998
0.392808
0.493231
0.60045
0.714544
0.835821
0.954013
1.05512
1.1393
1.21268
1.27402
1.3188
1.31945
1.27588
1.21728
1.20709
0.0533397
0.071125
0.127139
0.200322
0.286146
0.378891
0.47918
0.586153
0.699868
0.820603
0.938032
1.03785
1.11891
1.18668
1.24096
1.2586
1.22911
1.15871
1.08725
1.07194
0.0401251
0.0575641
0.113706
0.186803
0.272533
0.365043
0.465024
0.571523
0.684464
0.803972
0.920035
1.01776
1.09259
1.14768
1.17742
1.16925
1.1203
1.02127
0.935442
0.917088
0.0271994
0.0442286
0.100423
0.173296
0.258809
0.350956
0.450479
0.556286
0.668132
0.786028
0.899922
0.993485
1.06114
1.10045
1.09601
1.06336
0.958955
0.838501
0.732377
0.708337
0.0136652
0.0303269
0.0865823
0.159177
0.24441
0.336157
0.43513
0.540088
0.650631
0.766444
0.876954
0.965279
1.02702
1.04276
1.00683
0.922144
0.766898
0.615239
0.487779
0.462421
-0.000991068
0.0154412
0.0718739
0.144214
0.229152
0.320513
0.418886
0.522893
0.631955
0.745303
0.851958
0.934838
0.984987
0.973986
0.916426
0.767938
0.565456
0.350731
0.169731
0.123376
-0.0168589
-0.000504629
0.0562285
0.12838
0.213064
0.304066
0.401808
0.504775
0.612209
0.722736
0.824185
0.901022
0.935727
0.893961
0.80307
0.610423
0.372228
0.0767666
-0.250784
-0.394719
-0.0340046
-0.0176126
0.039558
0.111605
0.196093
0.286754
0.383843
0.485708
0.591354
0.698711
0.794332
0.86549
0.882732
0.807806
0.66731
0.452758
0.208153
-0.147371
-0.748717
-1.32825
-0.0524729
-0.0359492
0.0217803
0.0938214
0.178232
0.268607
0.365064
0.465789
0.569582
0.673771
0.763507
0.827155
0.827605
0.732318
0.53611
0.288084
0.0722962
-0.178075
-0.760703
-2.33208
-0.0722414
-0.0556054
0.0028423
0.0749326
0.159329
0.24943
0.345223
0.444752
0.546558
0.647286
0.731228
0.785231
0.76701
0.67234
0.437313
0.179075
0.0199565
-0.029686
-0.0371041
-0.437834
-0.0932498
-0.0766277
-0.0174464
0.0546283
0.139012
0.228766
0.323757
0.42186
0.521393
0.618212
0.696791
0.740609
0.704334
0.624574
0.389662
0.162504
0.0365068
0.0225029
0.0708384
0.0275443
-0.115459
-0.0988627
-0.039032
0.0328937
0.117229
0.20651
0.300516
0.396982
0.493884
0.58624
0.660039
0.694653
0.648978
0.570274
0.350621
0.170839
0.077564
0.0680233
0.0206472
0.0118756
-0.138791
-0.122083
-0.0619032
0.00970123
0.0940155
0.182666
0.275516
0.370109
0.464082
0.551822
0.62128
0.646872
0.599406
0.506723
0.318647
0.178404
0.0949441
0.127421
0.103415
0.101196
-0.163029
-0.145933
-0.0859285
-0.0147802
0.0695467
0.157354
0.24888
0.341421
0.432117
0.515332
0.580207
0.595831
0.556333
0.437371
0.278718
0.178243
0.122573
0.086422
0.107417
0.100258
-0.18763
-0.170225
-0.111039
-0.0403852
0.0440653
0.130768
0.220836
0.311235
0.398407
0.477231
0.537816
0.542853
0.513591
0.372213
0.235186
0.162344
0.170565
0.107574
0.134241
0.127263
-0.21206
-0.194567
-0.136836
-0.0665772
0.0178999
0.103244
0.191801
0.279958
0.363192
0.437842
0.495429
0.491433
0.466104
0.320401
0.198394
0.131783
0.166588
0.132392
0.13321
0.13211
-0.235793
-0.218652
-0.16256
-0.0926966
-0.00856353
0.0752168
0.162204
0.248138
0.327208
0.397619
0.453631
0.441117
0.408573
0.278438
0.185418
0.127972
0.112054
0.129482
0.126841
0.130796
-0.258144
-0.241733
-0.187101
-0.117871
-0.0349896
0.0473163
0.132748
0.216362
0.291499
0.35719
0.413647
0.393034
0.348586
0.245755
0.185786
0.148293
0.0934705
0.136939
0.129951
0.138068
-0.278161
-0.262844
-0.209754
-0.141346
-0.0607048
0.020357
0.104215
0.18559
0.257186
0.3171
0.375514
0.34734
0.283115
0.210007
0.189222
0.210384
0.130793
0.165539
0.147401
0.151954
-0.294737
-0.280866
-0.229732
-0.16264
-0.0846585
-0.00461123
0.0775308
0.15675
0.225795
0.278702
0.338741
0.306048
0.213688
0.172986
0.216094
0.321527
0.243197
0.201056
0.174526
0.16485
-0.306686
-0.294675
-0.24626
-0.180884
-0.105156
-0.0264855
0.0538317
0.13096
0.198117
0.244109
0.302854
0.27297
0.139502
0.0836607
0.13973
0.151159
0.138491
0.115576
0.0982893
0.0997441
-0.313137
-0.303214
-0.258129
-0.1948
-0.121088
-0.044185
0.0342242
0.109784
0.175939
0.216923
0.26611
0.249386
0.0513698
-0.165358
-0.320645
-0.4112
-0.414018
-0.368351
-0.322978
-0.288769
-0.313106
-0.305099
-0.26388
-0.202905
-0.131239
-0.056185
0.0203961
0.0945408
0.160606
0.201883
0.236131
0.23072
-0.0139733
-0.413436
-0.940685
-1.25688
-1.28111
-1.2189
-1.06844
-0.962042
-0.305879
-0.298747
-0.26206
-0.204058
-0.13478
-0.0617115
0.0135381
0.0873116
0.155078
0.202652
0.232809
0.234342
0.0279967
-0.325939
-0.779302
-0.973728
-0.922284
-0.81754
-0.723723
-0.670811
-0.288035
-0.280689
-0.250302
-0.197081
-0.130805
-0.0595347
0.0147238
0.0896898
0.162477
0.221117
0.262854
0.302885
0.298817
0.344233
0.360628
0.430814
0.539871
0.634768
0.720531
0.799718
-0.25479
-0.24804
-0.227686
-0.181876
-0.119336
-0.0497559
0.0243032
0.101628
0.182791
0.261205
0.331977
0.455576
0.648784
0.981814
1.29946
1.57285
1.78363
1.91678
1.9862
2.00834
-0.208279
-0.20397
-0.196699
-0.159672
-0.101645
-0.0330984
0.0413674
0.121917
0.212017
0.312929
0.416359
0.571199
0.865716
1.29127
1.71275
2.07108
2.32513
2.47234
2.53682
2.55608
-0.170073
-0.16925
-0.164827
-0.135067
-0.0813578
-0.0133727
0.0629062
0.14619
0.239779
0.351982
0.471517
0.59182
0.883839
1.2541
1.62025
1.93634
2.1727
2.31298
2.37582
2.39383
-0.140358
-0.141703
-0.135902
-0.112778
-0.0607333
0.00668707
0.083509
0.166604
0.25667
0.363477
0.477148
0.557265
0.779301
1.06753
1.34368
1.58149
1.7688
1.88533
1.94002
1.95738
-0.107036
-0.107772
-0.107304
-0.0890837
-0.0378147
0.0275617
0.102278
0.18187
0.264884
0.356239
0.460428
0.520536
0.672247
0.898584
1.11702
1.29486
1.43446
1.5291
1.57294
1.5851
-0.0649154
-0.0658072
-0.0683684
-0.0529584
-0.00652083
0.0532548
0.121968
0.194788
0.268545
0.342917
0.435196
0.48836
0.579235
0.748999
0.92223
1.05377
1.15364
1.22507
1.25699
1.26359
-0.00131763
-0.00279032
-0.0053494
0.00567824
0.0422989
0.0897036
0.146886
0.209156
0.271941
0.332952
0.411851
0.462004
0.512435
0.634705
0.7682
0.863714
0.935053
0.985846
1.00912
1.01702
0.0815685
0.0798897
0.0784783
0.0858933
0.108394
0.140375
0.181481
0.22912
0.280697
0.330442
0.39471
0.439217
0.470405
0.558624
0.654593
0.721218
0.773599
0.814151
0.829868
0.833845
0.168914
0.167514
0.166386
0.16999
0.181515
0.199823
0.224584
0.25635
0.296762
0.333431
0.381938
0.419713
0.439532
0.507633
0.575794
0.621295
0.659934
0.688497
0.703145
0.707992
0.245302
0.244212
0.243194
0.244032
0.248031
0.255877
0.268541
0.286252
0.314553
0.338525
0.370946
0.402849
0.413754
0.467759
0.520108
0.551953
0.57897
0.596495
0.606167
0.60938
0.302294
0.301587
0.300397
0.298802
0.297957
0.29926
0.304332
0.312431
0.329295
0.343949
0.363637
0.387983
0.395526
0.435951
0.47313
0.498858
0.517429
0.52774
0.531573
0.531583
0.338078
0.337561
0.336284
0.333407
0.329708
0.327399
0.327934
0.330884
0.339729
0.349527
0.362379
0.375139
0.385938
0.410888
0.43658
0.455016
0.466236
0.471517
0.472126
0.470547
0.357364
0.35692
0.355682
0.352833
0.348253
0.3445
0.342667
0.342878
0.347416
0.354249
0.363127
0.370082
0.377232
0.394304
0.409375
0.419233
0.424774
0.423988
0.421826
0.420618
0.366411
0.366054
0.364947
0.362547
0.358358
0.354659
0.352041
0.350991
0.353757
0.358534
0.363903
0.367355
0.369212
0.383459
0.39236
0.396082
0.39669
0.394306
0.391178
0.389924
0.369334
0.369095
0.368259
0.366379
0.363139
0.36016
0.358
0.356686
0.359292
0.362198
0.365482
0.365408
0.364041
0.378083
0.386971
0.390046
0.391889
0.393918
0.393162
0.390135
0.368344
0.368227
0.367754
0.366432
0.364278
0.36199
0.360506
0.359836
0.363399
0.366043
0.37042
0.369105
0.367929
0.380213
0.391997
0.398584
0.401898
0.402975
0.403124
0.400528
0.363943
0.363962
0.363877
0.363283
0.362139
0.360857
0.360564
0.360786
0.365127
0.371829
0.381897
0.381442
0.383725
0.392342
0.401305
0.40594
0.404004
0.399301
0.397845
0.397714
0.35569
0.355925
0.356284
0.356551
0.356528
0.357007
0.356468
0.360223
0.367291
0.377416
0.392095
0.397864
0.401756
0.407182
0.411489
0.41399
0.414448
0.41424
0.413809
0.414433
0.34121
0.34161
0.342306
0.343236
0.344069
0.346234
0.348512
0.355195
0.363212
0.3774
0.398318
0.41516
0.416853
0.421551
0.429174
0.441411
0.46124
0.476546
0.480583
0.47702
0.320069
0.320799
0.321625
0.323145
0.32487
0.32803
0.332278
0.340324
0.350833
0.369457
0.396998
0.417689
0.427736
0.42993
0.448216
0.468613
0.494225
0.514797
0.523392
0.512708
0.290871
0.291677
0.292458
0.293988
0.296427
0.300447
0.305503
0.313821
0.324978
0.344765
0.373621
0.395601
0.411723
0.407319
0.425795
0.444897
0.455346
0.462085
0.470108
0.465518
0.252416
0.253464
0.254674
0.256323
0.258344
0.261356
0.265158
0.269314
0.275864
0.293013
0.323818
0.350603
0.353449
0.351104
0.367591
0.385225
0.391085
0.385492
0.389458
0.390723
0.201401
0.202283
0.203339
0.204847
0.206494
0.207721
0.207531
0.204856
0.204161
0.211601
0.247681
0.291621
0.284251
0.298314
0.326103
0.345468
0.373357
0.378503
0.365737
0.371284
0.143391
0.14391
0.14438
0.144882
0.14461
0.141879
0.133892
0.120101
0.100032
0.0982085
0.151208
0.223349
0.230284
0.255753
0.302273
0.323198
0.352609
0.377598
0.355059
0.358683
0.081321
0.0814409
0.0812004
0.0804269
0.0771355
0.0683075
0.049432
0.0198097
-0.0247498
-0.0398012
0.0215262
0.129936
0.163613
0.196038
0.243488
0.275618
0.270447
0.285316
0.283565
0.28212
0.0272966
0.0265017
0.0247075
0.0216367
0.014385
-0.00245386
-0.035832
-0.0919915
-0.164985
-0.186422
-0.112802
0.0205636
0.0625201
0.126788
0.166047
0.208534
0.213503
0.189611
0.204922
0.200256
-0.008978
-0.0102698
-0.0128924
-0.0178108
-0.0276373
-0.0496316
-0.0918578
-0.162945
-0.254822
-0.30329
-0.239758
-0.0788828
-0.0360582
0.068108
0.124926
0.142718
0.173768
0.142391
0.1465
0.144217
-0.0187392
-0.020077
-0.0205025
-0.0235645
-0.034712
-0.0585917
-0.102276
-0.174063
-0.271124
-0.336901
-0.279542
-0.116147
-0.0400652
0.0118204
0.0616368
0.0751292
0.0832606
0.0847416
0.0817786
0.0817871
0.00501882
0.00422061
0.0047929
0.00550469
0.00316013
-0.00627964
-0.0290232
-0.0710014
-0.130121
-0.169852
-0.136252
-0.0621617
-0.0216732
-0.0427042
-0.0466915
-0.0104155
-0.00612914
0.0121918
0.0147371
0.0160562
-0.750942
0.114406
0.38644
0.670432
0.86048
1.02473
1.16144
1.30021
1.44918
1.52677
0.251372
0.670706
0.694073
0.887529
1.01925
1.13706
1.23925
1.32939
1.35891
1.3153
0.646428
0.867277
0.907582
1.04692
1.1381
1.22217
1.29152
1.34323
1.34669
1.35949
0.884385
1.03456
1.07055
1.17729
1.23536
1.29646
1.343
1.37622
1.38589
1.40912
1.07183
1.17442
1.20485
1.27669
1.32113
1.36449
1.39757
1.42235
1.43259
1.46378
1.21635
1.28801
1.31848
1.3636
1.40042
1.43157
1.45655
1.47751
1.49205
1.52006
1.33786
1.38988
1.41596
1.44502
1.47356
1.49791
1.51832
1.53777
1.5529
1.57922
1.44294
1.48116
1.50255
1.52375
1.5452
1.56504
1.58269
1.60096
1.61591
1.63953
1.53818
1.56717
1.58439
1.60009
1.61665
1.633
1.6487
1.66575
1.67935
1.70166
1.62709
1.64795
1.66311
1.67653
1.69033
1.70427
1.71782
1.73244
1.74397
1.76363
1.71337
1.72926
1.74322
1.7552
1.76724
1.77891
1.79004
1.80172
1.80938
1.8262
1.7989
1.81184
1.82564
1.83732
1.84788
1.85762
1.86639
1.87463
1.87819
1.88948
1.88823
1.89923
1.9127
1.92191
1.92934
1.93653
1.94372
1.95027
1.95128
1.95871
1.98667
1.9914
1.99944
2.00393
2.00721
2.01168
2.01768
2.02543
2.02926
2.03914
2.09998
2.08628
2.07884
2.07322
2.07055
2.07196
2.07844
2.09083
2.1056
2.13526
2.2209
2.16516
2.1343
2.11723
2.10908
2.10906
2.11777
2.13731
2.1693
2.23849
)
;

boundaryField
{
    wall-4
    {
        type            zeroGradient;
    }
    pressure-outlet-7
    {
        type            fixedValue;
        value           uniform 0;
    }
    velocity-inlet-6
    {
        type            zeroGradient;
    }
    velocity-inlet-5
    {
        type            zeroGradient;
    }
    frontAndBackPlanes
    {
        type            empty;
    }
}


// ************************************************************************* //
