/*--------------------------------*- C++ -*----------------------------------*\
| =========                 |                                                 |
| \\      /  F ield         | OpenFOAM: The Open Source CFD Toolbox           |
|  \\    /   O peration     | Version:  v2012                                 |
|   \\  /    A nd           | Website:  www.openfoam.com                      |
|    \\/     M anipulation  |                                                 |
\*---------------------------------------------------------------------------*/
FoamFile
{
    version     2.0;
    format      ascii;
    class       surfaceScalarField;
    location    "31";
    object      phi;
}
// * * * * * * * * * * * * * * * * * * * * * * * * * * * * * * * * * * * * * //

dimensions      [0 3 -1 0 0 0 0];
oriented        oriented;


internalField   nonuniform List<scalar> 
4262
(
0.107141
0.470847
0.0955735
0.705154
0.0693883
0.858488
0.0473518
1.0208
0.0309222
1.21495
0.0197508
1.44939
0.0124313
1.73318
0.00724558
2.07622
0.00329233
2.4892
-0.000195384
2.98578
-0.00375939
2.98586
-0.00775262
2.48924
-0.0128999
2.07618
-0.0200302
1.73299
-0.0310324
1.44922
-0.0473054
1.21479
-0.0691887
1.02065
-0.0953912
0.858506
-0.107125
0.705319
0.470863
0.112905
0.357942
0.13535
0.682709
0.120517
0.873321
0.0980737
1.04324
0.0749325
1.23809
0.0532079
1.47112
0.0347665
1.75162
0.0205049
2.09048
0.00918754
2.50051
-0.00104656
2.99601
-0.0111705
2.99598
-0.0221491
2.50022
-0.0361289
2.09016
-0.0546172
1.75148
-0.076399
1.471
-0.0997073
1.2381
-0.122412
1.04335
-0.136485
0.872578
-0.11339
0.682224
0.357473
0.0920655
0.265876
0.125013
0.649761
0.12116
0.877174
0.104905
1.0595
0.0864233
1.25657
0.0673445
1.49019
0.0482662
1.7707
0.0302749
2.10847
0.013994
2.5168
-0.00160847
3.01162
-0.0170774
3.01145
-0.0332169
2.51635
-0.0510323
2.10798
-0.0696241
1.77007
-0.088021
1.4894
-0.105641
1.25572
-0.120716
1.05843
-0.125355
0.877218
-0.0923054
0.649175
0.265168
0.063963
0.201913
0.104809
0.608916
0.106537
0.875446
0.0950463
1.07099
0.0809642
1.27065
0.0664228
1.50474
0.0506251
1.7865
0.033727
2.12537
0.0161176
2.5344
-0.0025548
3.03029
-0.0210953
3.02999
-0.0382901
2.53355
-0.0544566
2.12415
-0.0694897
1.78511
-0.0835203
1.50343
-0.0973979
1.2696
-0.108937
1.06997
-0.10626
0.87454
-0.0645355
0.60745
0.200632
0.0375399
0.164373
0.0809347
0.565521
0.0914052
0.864976
0.0842549
1.07814
0.0715039
1.2834
0.0593868
1.51685
0.0466153
1.79927
0.0321362
2.13985
0.0157551
2.55079
-0.00315414
3.0492
-0.0217314
3.04857
-0.0374566
2.54927
-0.0512574
2.13795
-0.063676
1.79753
-0.0753858
1.51514
-0.0875594
1.28177
-0.0940361
1.07644
-0.0826128
0.863117
-0.0381711
0.563009
0.162461
0.0194488
0.144925
0.0570507
0.527919
0.072403
0.849624
0.0705141
1.08003
0.061988
1.29193
0.051216
1.52762
0.0399681
1.81052
0.0275789
2.15224
0.0129155
2.56545
-0.00437553
3.06649
-0.0213272
3.06552
-0.035168
2.56312
-0.0467411
2.14952
-0.0568478
1.80763
-0.0666932
1.52499
-0.0744608
1.28954
-0.0755209
1.0775
-0.0589742
0.84657
-0.0200674
0.524102
0.142394
0.0105235
0.134401
0.0421621
0.496281
0.0582884
0.833497
0.0588206
1.0795
0.0531089
1.29764
0.0442331
1.5365
0.034179
1.82057
0.0229061
2.16351
0.0100152
2.57834
-0.00538819
3.08189
-0.0205101
3.08064
-0.0326952
2.5753
-0.042909
2.15973
-0.0519162
1.81664
-0.0598791
1.53295
-0.0643732
1.29403
-0.0625384
1.07567
-0.0447571
0.828789
-0.0113435
0.490688
0.13105
0.00661645
0.127785
0.0330465
0.46985
0.0494193
0.817124
0.0510909
1.07782
0.0463808
1.30235
0.0384927
1.54439
0.029112
1.82995
0.0182995
2.17433
0.0063638
2.59028
-0.00691276
3.09517
-0.0196037
3.09333
-0.0303753
2.58607
-0.0396339
2.16899
-0.0475945
1.8246
-0.0540029
1.53936
-0.0573042
1.29733
-0.0542079
1.07257
-0.0359283
0.810509
-0.00750922
0.462269
0.123541
0.00464087
0.123144
0.0261116
0.44838
0.0418075
0.801429
0.043989
1.07564
0.0396616
1.30668
0.0326834
1.55137
0.0243224
1.83832
0.0145794
2.18407
0.00353875
2.60132
-0.00842923
3.10714
-0.0198487
3.10475
-0.0295367
2.59576
-0.0378445
2.1773
-0.0443341
1.83109
-0.0496669
1.54469
-0.0524218
1.30009
-0.0482129
1.06836
-0.0297998
0.792096
-0.00577445
0.438244
0.117767
0.00337262
0.119771
0.0205459
0.431206
0.0353717
0.786603
0.0382119
1.0728
0.0341309
1.31076
0.0272575
1.55824
0.0193052
1.84627
0.0102656
2.19311
0.00021259
2.61137
-0.0108679
3.11822
-0.021198
3.11508
-0.029416
2.60398
-0.0362177
2.1841
-0.0419817
1.83685
-0.0466818
1.54939
-0.04844
1.30185
-0.0429812
1.0629
-0.0249843
0.774099
-0.00480791
0.418067
0.112959
0.00255915
0.117212
0.0158912
0.417874
0.0290918
0.773402
0.0322732
1.06962
0.0287868
1.31424
0.0225542
1.56447
0.0153669
1.85346
0.00714953
2.20133
-0.00231414
2.62083
-0.0130576
3.12896
-0.0228014
3.12482
-0.0301634
2.61134
-0.0357566
2.18969
-0.0406102
1.84171
-0.0444936
1.55327
-0.0453265
1.30268
-0.0387259
1.0563
-0.0213174
0.756691
-0.00425643
0.401006
0.108702
0.00188869
0.115323
0.0118092
0.407954
0.0234165
0.761795
0.0266111
1.06643
0.0234163
1.31744
0.0175086
1.57038
0.0105949
1.86037
0.00277129
2.20915
-0.00633966
2.62994
-0.0168771
3.1395
-0.0261754
3.13412
-0.0324899
2.61765
-0.0368248
2.19403
-0.0400932
1.84498
-0.0424071
1.55559
-0.0419178
1.30219
-0.0346464
1.04903
-0.0183073
0.740352
-0.0039878
0.386687
0.104715
0.00105135
0.114272
0.00764136
0.401364
0.0166704
0.752766
0.0191768
1.06392
0.0162798
1.32034
0.0110039
1.57566
0.00455619
1.86682
-0.00282748
2.21653
-0.0112008
2.63832
-0.0202254
3.14852
-0.0277877
3.14169
-0.0327953
2.62266
-0.0360517
2.19729
-0.0386875
1.84761
-0.0400057
1.55691
-0.0388248
1.30101
-0.0310231
1.04123
-0.0156113
0.72494
-0.00371567
0.374791
0.100999
0.000101845
0.11417
0.00309721
0.398369
0.00981281
0.74605
0.0118681
1.06186
0.00898326
1.32322
0.00389057
1.58075
-0.00257083
1.87328
-0.00994726
2.22391
-0.0177161
2.64609
-0.0251495
3.15596
-0.0308675
3.1474
-0.0345427
2.62634
-0.0370262
2.19977
-0.0380871
1.84867
-0.0377734
1.55659
-0.0352468
1.29848
-0.0267919
1.03278
-0.012811
0.710959
-0.00321714
0.365197
0.0977818
-0.000806499
0.114977
-0.000566948
0.398129
0.00345914
0.742024
0.00418701
1.06114
0.00131298
1.3261
-0.00344624
1.58551
-0.00964768
1.87948
-0.0168
2.23106
-0.0242833
2.65357
-0.0311437
3.16282
-0.0359169
3.15218
-0.0382501
2.62867
-0.0389115
2.20043
-0.0382815
1.84804
-0.0368729
1.55518
-0.0332012
1.29481
-0.0242192
1.02379
-0.0111686
0.697908
-0.00290012
0.356929
0.0948817
-0.00206602
0.117043
-0.00414892
0.400212
-0.00346743
0.741343
-0.00320345
1.06087
-0.00657513
1.32947
-0.0118728
1.59081
-0.0181969
1.8858
-0.0252133
2.23808
-0.0325261
2.66088
-0.0389947
3.16929
-0.0425863
3.15577
-0.0432409
2.62933
-0.042157
2.19935
-0.0403561
1.84624
-0.0373596
1.55219
-0.0321056
1.28956
-0.0224214
1.01411
-0.0103931
0.68588
-0.00288417
0.34942
0.0919975
-0.00317265
0.120215
-0.0076058
0.404645
-0.0101674
0.743904
-0.0125815
1.06329
-0.0165085
1.33339
-0.0219427
1.59624
-0.0283555
1.89222
-0.0352883
2.24501
-0.0420824
2.66768
-0.0475919
3.1748
-0.0497755
3.15795
-0.0486766
2.62823
-0.0458539
2.19652
-0.0426036
1.84299
-0.0382601
1.54784
-0.0322525
1.28355
-0.0222146
1.00407
-0.0105535
0.674219
-0.00304147
0.341908
0.088956
-0.00401473
0.12423
-0.0112372
0.411867
-0.0166296
0.749297
-0.0208249
1.06748
-0.0262084
1.33878
-0.0330661
1.6031
-0.040564
1.89971
-0.0480748
2.25252
-0.0549068
2.67451
-0.0594883
3.17938
-0.0595567
3.15802
-0.0563102
2.62498
-0.0519919
2.19221
-0.0471674
1.83817
-0.0412983
1.54197
-0.0336287
1.27588
-0.0227264
0.993169
-0.0112292
0.662722
-0.00335998
0.334039
0.085596
-0.00517656
0.129406
-0.0149063
0.421597
-0.0235353
0.757926
-0.0298487
1.0738
-0.0363474
1.34528
-0.0441653
1.61092
-0.0526611
1.90821
-0.0613807
2.26124
-0.0688945
2.68202
-0.0732596
3.18374
-0.072204
3.15696
-0.0676092
2.62039
-0.0609557
2.18555
-0.0538037
1.83101
-0.0464014
1.53457
-0.0376928
1.26717
-0.0259172
0.981394
-0.0133103
0.650115
-0.00398771
0.324716
0.0816083
-0.00631607
0.135723
-0.0181301
0.433411
-0.0295913
0.769387
-0.0385121
1.08272
-0.0471351
1.3539
-0.056823
1.6206
-0.0672169
1.9186
-0.0775647
2.27159
-0.0863953
2.69085
-0.0913207
3.18867
-0.0892232
3.15487
-0.082707
2.61387
-0.0743558
2.1772
-0.0656124
1.82227
-0.0561391
1.5251
-0.0449628
1.25599
-0.0306779
0.967109
-0.0160975
0.635534
-0.00489552
0.313514
0.0767128
-0.00855681
0.144279
-0.0241713
0.449026
-0.0391231
0.784339
-0.0504475
1.09404
-0.0607873
1.36424
-0.0725146
1.63233
-0.0850145
1.9311
-0.0974363
2.28401
-0.107731
2.70115
-0.112566
3.1935
-0.1093
3.1516
-0.101249
2.60582
-0.0906695
2.16662
-0.079297
1.8109
-0.0672294
1.51303
-0.0533686
1.24213
-0.0367384
0.950479
-0.0195525
0.618348
-0.00589376
0.299856
0.0708191
-0.010584
0.154863
-0.0299519
0.468394
-0.0490766
0.803463
-0.0640762
1.10904
-0.0776686
1.37783
-0.0923045
1.64697
-0.107785
1.94658
-0.12264
2.29887
-0.13402
2.71253
-0.138523
3.19801
-0.13412
3.1472
-0.123719
2.59542
-0.110705
2.15361
-0.0967622
1.79696
-0.0818302
1.4981
-0.0641483
1.22445
-0.0434929
0.929823
-0.0230136
0.597869
-0.00688246
0.283724
0.0639366
-0.015085
0.169948
-0.0411754
0.494484
-0.0656509
0.827939
-0.084436
1.12783
-0.100805
1.3942
-0.118724
1.66489
-0.137373
1.96523
-0.154461
2.31596
-0.166999
2.72507
-0.170909
3.20192
-0.163574
3.13986
-0.150085
2.58193
-0.133907
2.13743
-0.115985
1.77903
-0.0967393
1.47885
-0.0751106
1.20282
-0.051243
0.905956
-0.0272988
0.573925
-0.00796907
0.264395
0.0559675
-0.0190011
0.188949
-0.0529033
0.528386
-0.0853952
0.860431
-0.110433
1.15286
-0.13271
1.41648
-0.15521
1.68739
-0.176699
1.98672
-0.195146
2.3344
-0.206941
2.73686
-0.20783
3.2028
-0.197298
3.12933
-0.18059
2.56522
-0.160757
2.1176
-0.139379
1.75766
-0.116394
1.45587
-0.0903111
1.17674
-0.061076
0.87672
-0.0318675
0.544717
-0.00901146
0.241539
0.0469561
-0.032813
0.221762
-0.0789261
0.574499
-0.119805
0.901309
-0.151298
1.18436
-0.178868
1.44405
-0.204764
1.71328
-0.228035
2.00999
-0.246201
2.35257
-0.256091
2.74675
-0.25369
3.2004
-0.237815
3.11346
-0.215347
2.54275
-0.190493
2.09274
-0.164008
1.73117
-0.135851
1.42771
-0.105039
1.14593
-0.0714435
0.843125
-0.037459
0.510732
-0.0102819
0.214362
0.0366741
-0.0471035
0.268866
-0.116561
0.643956
-0.172605
0.957353
-0.211186
1.22294
-0.244009
1.47687
-0.27218
1.74145
-0.294651
2.03246
-0.309659
2.36758
-0.313701
2.75079
-0.303051
3.18975
-0.279643
3.09005
-0.252118
2.51523
-0.222939
2.06356
-0.192832
1.70106
-0.161211
1.39609
-0.125626
1.11034
-0.084842
0.802341
-0.0417116
0.467602
-0.0101426
0.182793
0.0265315
-0.0325947
0.301461
-0.0909754
0.702337
-0.142779
1.00916
-0.18647
1.26663
-0.227331
1.51773
-0.262886
1.77701
-0.296953
2.06653
-0.326862
2.39748
-0.348545
2.77248
-0.355963
3.19717
-0.344137
3.07822
-0.317267
2.48836
-0.280811
2.02711
-0.237708
1.65796
-0.190735
1.34912
-0.14028
1.05989
-0.085667
0.747728
-0.036305
0.41824
-0.00793578
0.154423
0.0185957
-0.0107886
0.312249
-0.0413357
0.732884
-0.0791144
1.04694
-0.115498
1.30301
-0.150846
1.55308
-0.184582
1.81074
-0.215899
2.09785
-0.241964
2.42355
-0.258751
2.78926
-0.25939
3.19781
-0.238534
3.05737
-0.205616
2.45544
-0.16838
1.98987
-0.129946
1.61953
-0.0902752
1.30945
-0.0513571
1.02097
-0.0197695
0.71614
-0.00203522
0.400505
0.00134614
0.151042
0.0199418
0.0024318
0.309818
-0.0190301
0.754346
-0.0465504
1.07446
-0.0753287
1.33179
-0.104498
1.58225
-0.133555
1.8398
-0.160982
2.12528
-0.183554
2.44612
-0.197065
2.80277
-0.195313
3.19606
-0.175902
3.03795
-0.147296
2.42683
-0.112689
1.95526
-0.0743695
1.58121
-0.0374381
1.27252
-0.0066498
0.99018
0.0128145
0.696676
0.014675
0.398645
0.00593078
0.159786
0.0258726
0.00262404
0.307194
-0.00848855
0.765459
-0.0287929
1.09476
-0.0526644
1.35566
-0.0771213
1.60671
-0.101765
1.86444
-0.125132
2.14864
-0.144206
2.4652
-0.154774
2.81334
-0.150657
3.19194
-0.130721
3.01802
-0.101294
2.39741
-0.067401
1.92137
-0.0352947
1.5491
-0.00847583
1.2457
0.0115118
0.970193
0.0214158
0.686772
0.0182205
0.40184
0.0067492
0.171258
0.0326218
0.0048748
0.302319
-0.00297482
0.773308
-0.0205256
1.11231
-0.0404824
1.37562
-0.0611998
1.62742
-0.0824065
1.88565
-0.102662
2.1689
-0.119396
2.48193
-0.12893
2.82287
-0.125905
3.18892
-0.108055
3.00017
-0.0823411
2.37169
-0.0562831
1.89531
-0.0311951
1.52401
-0.00635763
1.22086
0.0130657
0.950769
0.0205422
0.679296
0.0157199
0.406662
0.00537342
0.181604
0.0379952
0.00581751
0.296501
0.000506809
0.778619
-0.0149608
1.12778
-0.0332503
1.39391
-0.0520336
1.64621
-0.0710446
1.90466
-0.0892602
2.18711
-0.104461
2.49713
-0.112811
2.83123
-0.108843
3.18495
-0.0917107
2.98304
-0.0704386
2.35042
-0.0467032
1.87158
-0.0218075
1.49912
-0.00116537
1.20022
0.0123907
0.937213
0.017751
0.673935
0.0123243
0.412089
0.00392179
0.190006
0.041917
0.00382697
0.292674
-0.000172034
0.782618
-0.0136402
1.14125
-0.0301276
1.4104
-0.0473122
1.66339
-0.0647476
1.9221
-0.0816988
2.20407
-0.09612
2.51155
-0.104687
2.83979
-0.103733
3.18399
-0.0905255
2.96983
-0.0695058
2.3294
-0.0464535
1.84852
-0.0266287
1.47929
-0.00903233
1.18262
0.00426535
0.923916
0.00878721
0.669413
0.00720325
0.413673
0.00251025
0.194699
0.0444273
0.00258758
0.290087
-0.00069443
0.7859
-0.0128267
1.15338
-0.0283513
1.42592
-0.0449013
1.67994
-0.0615664
1.93876
-0.0777757
2.22028
-0.0918067
2.52558
-0.100618
2.8486
-0.0990566
3.18243
-0.085432
2.9562
-0.0680893
2.31206
-0.0501637
1.8306
-0.0313271
1.46046
-0.0161191
1.16741
-0.00505774
0.912854
0.00043656
0.663919
-0.00035047
0.41446
-5.72167e-05
0.194406
0.04437
-0.000231204
0.290318
-0.00386438
0.789533
-0.0144558
1.16397
-0.0285341
1.44
-0.0440923
1.6955
-0.060114
1.95478
-0.0759703
2.23613
-0.0902116
2.53982
-0.0999428
2.85833
-0.101003
3.18349
-0.0911321
2.94633
-0.0736125
2.29454
-0.054576
1.81156
-0.0396024
1.44548
-0.0251831
1.15299
-0.015029
0.9027
-0.0088607
0.657751
-0.00464738
0.410247
-0.0014087
0.191168
0.0429613
-0.000665194
0.290983
-0.00557708
0.794445
-0.0158215
1.17421
-0.0289311
1.45311
-0.0439443
1.71051
-0.0596472
1.97049
-0.0755447
2.25203
-0.0902401
2.55452
-0.101065
2.86916
-0.104026
3.18645
-0.0942833
2.93659
-0.0790813
2.27934
-0.0630286
1.79551
-0.0453674
1.42782
-0.0318262
1.13945
-0.0203007
0.891175
-0.0123428
0.649793
-0.00732784
0.405232
-0.00222228
0.186062
0.0407391
-0.00259577
0.293579
-0.0080319
0.799881
-0.0175891
1.18377
-0.0299234
1.46544
-0.0442169
1.72481
-0.0596335
1.9859
-0.0756688
2.26806
-0.09097
2.56982
-0.103104
2.88129
-0.10758
3.19093
-0.100255
2.92927
-0.0857719
2.26485
-0.0685851
1.77832
-0.0535229
1.41276
-0.0396558
1.12559
-0.0285317
0.880051
-0.0189405
0.640202
-0.0093257
0.395617
-0.00286142
0.179598
0.0378776
-0.00389341
0.297472
-0.00942547
0.805413
-0.0187906
1.19314
-0.0307575
1.47741
-0.0445705
1.73862
-0.0596948
2.00103
-0.0757955
2.28417
-0.0915589
2.58558
-0.104692
2.89443
-0.111411
3.19765
-0.107171
2.92503
-0.0939994
2.25168
-0.078015
1.76234
-0.0609643
1.39571
-0.0458795
1.1105
-0.0320564
0.866227
-0.0205957
0.628741
-0.0111599
0.386181
-0.00329655
0.171734
0.0345811
-0.00443351
0.301906
-0.0107972
0.811777
-0.0200199
1.20236
-0.0315148
1.48891
-0.0448259
1.75193
-0.0596801
2.01588
-0.0759364
2.30042
-0.0926792
2.60233
-0.10831
2.91006
-0.119209
3.20855
-0.117665
2.92348
-0.105793
2.23981
-0.0865358
1.74308
-0.0685598
1.37773
-0.0518737
1.09381
-0.0386557
0.853009
-0.0258559
0.615941
-0.0121717
0.372497
-0.00341356
0.162976
0.0311675
-0.0044836
0.306389
-0.0112998
0.818593
-0.0206019
1.21166
-0.0319056
1.50021
-0.0449242
1.76495
-0.0595249
2.03048
-0.0758359
2.31673
-0.092964
2.61945
-0.108865
2.92596
-0.120053
3.21974
-0.120796
2.92422
-0.110731
2.22975
-0.0960334
1.72838
-0.0758512
1.35755
-0.0576978
1.07566
-0.0405771
0.835889
-0.0254056
0.60077
-0.0128426
0.359934
-0.00333447
0.153468
0.027833
-0.00454502
0.310934
-0.0118421
0.82589
-0.0210147
1.22083
-0.0319829
1.51118
-0.0446782
1.77764
-0.0590825
2.04489
-0.0754122
2.33306
-0.0931944
2.63724
-0.111573
2.94434
-0.12802
3.23618
-0.132729
2.92893
-0.123126
2.22014
-0.103634
1.70889
-0.0833093
1.33723
-0.0619954
1.05435
-0.0448292
0.818723
-0.0293206
0.585261
-0.0128992
0.343513
-0.00298575
0.143555
0.0248473
-0.00454366
0.315478
-0.0118604
0.833207
-0.0209066
1.22988
-0.0317032
1.52197
-0.0441953
1.79014
-0.0583784
2.05907
-0.0746735
2.34936
-0.0928835
2.65545
-0.11159
2.96304
-0.12685
3.25144
-0.133726
2.93581
-0.129273
2.21569
-0.115817
1.69543
-0.0920946
1.3135
-0.067595
1.02985
-0.0427488
0.793876
-0.0228974
0.56541
-0.0104131
0.331028
-0.00217655
0.135318
0.0226708
-0.00458434
0.320062
-0.0119693
0.840592
-0.0207251
1.23864
-0.0311555
1.5324
-0.0433182
1.8023
-0.0572998
2.07305
-0.0735865
2.36564
-0.092032
2.67389
-0.112246
2.98326
-0.132852
3.27205
-0.14531
2.94827
-0.141049
2.21143
-0.123136
1.67752
-0.100412
1.29078
-0.0708544
1.00029
-0.0441023
0.767124
-0.0209799
0.542287
-0.00607482
0.316123
-0.00229875
0.131542
0.020372
-0.00450487
0.324567
-0.0116842
0.847771
-0.0201968
1.24715
-0.0303558
1.54256
-0.0422331
1.81418
-0.0559515
2.08677
-0.0720791
2.38177
-0.0907253
2.69254
-0.111405
3.00394
-0.13156
3.2922
-0.143875
2.96058
-0.146373
2.21393
-0.137223
1.66837
-0.111736
1.26529
-0.0780902
0.966645
-0.0361934
0.725227
0.00329699
0.502797
0.0238405
0.29558
0.0217174
0.133665
0.0420894
-0.00439001
0.328957
-0.0114767
0.854858
-0.0196567
1.25533
-0.0293905
1.5523
-0.0408508
1.82564
-0.0542692
2.10019
-0.0702314
2.39773
-0.0889254
2.71123
-0.11045
3.02546
-0.134228
3.31598
-0.1525
2.97885
-0.157575
2.219
-0.145489
1.65628
-0.122884
1.24269
-0.0839449
0.927705
-0.0384289
0.679712
0.0143927
0.449975
0.0362593
0.273713
0.0159392
0.153985
0.0580286
-0.00416791
0.333125
-0.0109761
0.861666
-0.0188739
1.26323
-0.0282572
1.56168
-0.0393676
1.83675
-0.0524171
2.11324
-0.0681113
2.41343
-0.0868142
2.72994
-0.108715
3.04736
-0.132366
3.33963
-0.15029
2.99678
-0.15993
2.22864
-0.160436
1.65679
-0.139497
1.22175
-0.101551
0.889759
-0.0336149
0.611776
0.068826
0.347534
0.166777
0.175762
0.173768
0.146994
0.231796
-0.00401514
0.33714
-0.0107712
0.868422
-0.0185448
1.271
-0.0278352
1.57097
-0.0390468
1.84796
-0.0525224
2.12671
-0.0691047
2.43001
-0.0893283
2.75016
-0.113911
3.07195
-0.143513
3.36924
-0.170846
3.02411
-0.186596
2.24439
-0.185021
1.65522
-0.169945
1.20667
-0.131145
0.850959
-0.0863339
0.566965
-0.111546
0.372746
-0.363785
0.428001
-0.928318
0.711527
0.8945
-1.59102
-0.00380347
0.340944
-0.010286
0.874905
-0.0178677
1.27858
-0.0270005
1.5801
-0.0380874
1.85904
-0.051602
2.14023
-0.0685069
2.44692
-0.0896105
2.77126
-0.116023
3.09836
-0.147822
3.40103
-0.17678
3.05307
-0.198861
2.26648
-0.219296
1.67565
-0.221114
1.20849
-0.213353
0.843198
-0.292483
0.646095
-0.689172
0.769435
-1.41333
1.15216
-2.02688
1.32507
1.21971
-2.35209
-0.00360444
0.344548
-0.00985145
0.881152
-0.0171497
1.28588
-0.0260172
1.58897
-0.0369197
1.86995
-0.0504736
2.15378
-0.0677054
2.46415
-0.0896056
2.79316
-0.117714
3.12647
-0.153969
3.43729
-0.192885
3.09198
-0.225315
2.29891
-0.244622
1.69496
-0.251893
1.21576
-0.339944
0.931249
-0.747526
1.05368
-1.51243
1.53434
-2.09304
1.73277
-2.33667
1.56871
1.33589
-2.45285
-0.00336628
0.347914
-0.00923449
0.88702
-0.016267
1.29291
-0.0249193
1.59762
-0.0356329
1.88066
-0.0491459
2.16729
-0.0665777
2.48158
-0.0892136
2.8158
-0.11902
3.15627
-0.158244
3.47651
-0.199746
3.13349
-0.236069
2.33523
-0.279212
1.7381
-0.371268
1.30782
-0.697397
1.25738
-1.41564
1.77192
-2.01331
2.13201
-2.25667
1.97613
-2.37204
1.68408
1.40216
-2.43831
-0.00310973
0.351024
-0.0086247
0.892535
-0.0152951
1.29958
-0.02362
1.60595
-0.0341583
1.8912
-0.0476294
2.18077
-0.065252
2.4992
-0.0884831
2.83903
-0.119711
3.1875
-0.162735
3.51954
-0.214149
3.1849
-0.266245
2.38733
-0.316551
1.78841
-0.49198
1.48325
-1.07586
1.84125
-1.76675
2.4628
-2.09846
2.46373
-2.25085
2.12851
-2.33474
1.76797
1.46832
-2.4009
-0.00299438
0.354019
-0.00835205
0.897893
-0.0150143
1.30625
-0.0234031
1.61434
-0.0341681
1.90196
-0.0478552
2.19445
-0.0658981
2.51724
-0.0899908
2.86312
-0.122949
3.22046
-0.169517
3.56611
-0.225163
3.24054
-0.278106
2.44027
-0.375186
1.88549
-0.750512
1.85857
-1.47095
2.5617
-1.95587
2.94771
-2.159
2.66687
-2.26701
2.23652
-2.34451
1.84548
1.53309
-2.40928
-0.00304372
0.357062
-0.00866984
0.903519
-0.0156385
1.31321
-0.0244005
1.6231
-0.0356507
1.91321
-0.0499775
2.20878
-0.0688653
2.53613
-0.0940895
2.88835
-0.128829
3.2552
-0.178483
3.61576
-0.239356
3.30142
-0.311087
2.512
-0.498145
2.07255
-1.03049
2.39091
-1.66012
3.19133
-1.94661
3.2342
-2.09649
2.81675
-2.21252
2.35255
-2.30706
1.94001
1.59631
-2.37028
-0.00303241
0.360095
-0.00886036
0.909347
-0.0162717
1.32063
-0.0255544
1.63238
-0.0373041
1.92496
-0.05223
2.22371
-0.0718883
2.55579
-0.0983081
2.91477
-0.134828
3.29172
-0.188103
3.66903
-0.255363
3.36868
-0.346041
2.60268
-0.618783
2.34529
-1.24351
3.01565
-1.74276
3.69057
-1.95365
3.44509
-2.09788
2.96099
-2.22484
2.47951
-2.33903
2.05419
1.6566
-2.39932
-0.00295504
0.36305
-0.00909112
0.915483
-0.0168736
1.32841
-0.0265922
1.6421
-0.0388713
1.93724
-0.0544995
2.23933
-0.0750669
2.57636
-0.102632
2.94233
-0.140963
3.33005
-0.196284
3.72435
-0.265811
3.43821
-0.389962
2.72683
-0.761284
2.71661
-1.38755
3.64191
-1.75434
4.05737
-1.9324
3.62314
-2.03929
3.06788
-2.13273
2.57295
-2.20399
2.12545
1.65081
-2.1982
-0.00282614
0.365876
-0.00909321
0.92175
-0.0173906
1.3367
-0.0277154
1.65243
-0.0405647
1.95009
-0.0568097
2.25558
-0.0781377
2.59769
-0.106866
2.97106
-0.146676
3.36986
-0.204738
3.78242
-0.286999
3.52047
-0.454749
2.89458
-0.891049
3.15291
-1.44535
4.19621
-1.71457
4.32659
-1.87453
3.7831
-1.97252
3.16587
-1.97871
2.57915
-1.91704
2.06378
1.62724
-1.89347
-0.00249248
0.368368
-0.00909114
0.928348
-0.0176857
1.3453
-0.0283545
1.66309
-0.0416285
1.96337
-0.0583246
2.27227
-0.0800791
2.61944
-0.10906
3.00004
-0.149347
3.41015
-0.206063
3.83913
-0.290874
3.60528
-0.48819
3.09189
-0.958739
3.62346
-1.40872
4.64619
-1.58638
4.50425
-1.66027
3.85699
-1.66906
3.17467
-1.52612
2.43621
-1.0301
1.56775
0.597147
-0.00208724
0.370456
-0.00867703
0.934938
-0.0178345
1.35446
-0.0293051
1.67457
-0.0435133
1.97757
-0.0613411
2.2901
-0.0847101
2.64281
-0.116183
3.03151
-0.159761
3.45373
-0.223114
3.90249
-0.326826
3.70899
-0.57347
3.33854
-1.09704
4.14703
-1.46694
5.0161
-1.56806
4.60536
-1.57285
3.86178
-1.47533
3.07714
-1.23892
2.1998
-0.647793
0.976624
-0.0506467
-0.00161256
0.372068
-0.00809411
0.94142
-0.0174689
1.36383
-0.0294686
1.68656
-0.0445518
1.99266
-0.063691
2.30924
-0.0888502
2.66797
-0.122737
3.0654
-0.170747
3.50174
-0.240171
3.97191
-0.358423
3.82724
-0.654638
3.63475
-1.20168
4.69407
-1.48312
5.29754
-1.55321
4.67546
-1.53672
3.84529
-1.3366
2.87702
-0.801822
1.66502
-0.118334
0.293137
-0.168981
-0.000864279
0.372932
-0.0068868
0.947442
-0.0167158
1.37366
-0.0295316
1.69938
-0.04541
2.00854
-0.0655389
2.32937
-0.0922167
2.69465
-0.128525
3.10171
-0.179381
3.55259
-0.255155
4.04768
-0.3981
3.97019
-0.752327
3.98898
-1.28751
5.22925
-1.47694
5.48697
-1.50586
4.70438
-1.42287
3.7623
-1.11761
2.57177
-0.332531
0.879937
0.0318322
-0.0712262
-0.137149
3.49797e-05
0.372897
-0.00507792
0.952555
-0.0148892
1.38347
-0.0281135
1.71261
-0.0446784
2.0251
-0.0660371
2.35073
-0.0943037
2.72291
-0.132632
3.14004
-0.186522
3.60648
-0.271394
4.13256
-0.437039
4.13583
-0.841721
4.39366
-1.31786
5.70539
-1.44339
5.6125
-1.45468
4.71567
-1.25471
3.56233
-0.718856
2.03591
-0.0695132
0.230594
0.0350085
-0.175748
-0.10214
0.00187722
0.37102
-0.00189233
0.956325
-0.012306
1.39389
-0.0263481
1.72665
-0.0433403
2.04209
-0.0653716
2.37276
-0.0947738
2.75232
-0.134699
3.17996
-0.190318
3.6621
-0.280709
4.22295
-0.469564
4.32469
-0.927179
4.85128
-1.32161
6.09982
-1.39633
5.68722
-1.36009
4.67943
-1.07643
3.27867
-0.358193
1.31767
-0.0152774
-0.112322
0.00790038
-0.198926
-0.0942399
0.00366959
0.367351
0.00156738
0.958427
-0.00829771
1.40375
-0.02199
1.74034
-0.0392704
2.05937
-0.06225
2.39574
-0.0925872
2.78265
-0.13373
3.2211
-0.191803
3.72017
-0.290949
4.32209
-0.501877
4.53561
-0.97829
5.32769
-1.26715
6.38868
-1.30669
5.72676
-1.20078
4.57351
-0.825975
2.90387
-0.110085
0.601781
0.0366689
-0.259075
0.0213246
-0.183581
-0.0729153
0.00589438
0.361456
0.00535154
0.95897
-0.00323352
1.41234
-0.0167241
1.75383
-0.0339529
2.0766
-0.0569269
2.41871
-0.0874985
2.81322
-0.128961
3.26257
-0.187467
3.77868
-0.289548
4.42417
-0.515694
4.76176
-0.989144
5.80114
-1.20044
6.59998
-1.22065
5.74697
-1.03675
4.38961
-0.513502
2.38062
-0.00470926
0.092988
0.0172015
-0.280986
0.0167346
-0.183115
-0.0561807
0.00872724
0.352729
0.0111865
0.956511
0.00506187
1.41846
-0.00696393
1.76586
-0.0245269
2.09417
-0.0475892
2.44178
-0.0777275
2.84336
-0.118692
3.30353
-0.177071
3.83706
-0.283908
4.53101
-0.524089
5.00194
-0.956844
6.23389
-1.09141
6.73455
-1.07534
5.7309
-0.843425
4.15769
-0.306336
1.84353
-0.0566349
-0.156713
-0.0320534
-0.305568
-0.00636016
-0.208808
-0.0625408
0.0127592
0.33997
0.0192045
0.950065
0.0148849
1.42278
0.00416194
1.77658
-0.012888
2.11122
-0.0343428
2.46323
-0.0628488
2.87187
-0.10192
3.3426
-0.157786
3.89292
-0.263949
4.63717
-0.497963
5.23596
-0.871625
6.60756
-0.966992
6.82992
-0.947956
5.71186
-0.697316
3.90705
-0.150951
1.29717
-0.0513304
-0.256334
-0.0285714
-0.328327
-0.00423934
-0.23314
-0.0667802
0.0178653
0.322104
0.029986
0.937945
0.0295909
1.42317
0.0204281
1.78574
0.00531543
2.12633
-0.0138564
2.4824
-0.040427
2.89844
-0.0763571
3.37853
-0.127699
3.94426
-0.228225
4.7377
-0.445397
5.45313
-0.732731
6.89489
-0.796575
6.89376
-0.72359
5.63888
-0.433426
3.61689
0.0338128
0.829929
0.0288464
-0.251368
0.0227355
-0.322216
0.0316521
-0.242056
-0.035128
0.0242851
0.297819
0.0433671
0.918863
0.0469706
1.41957
0.0406321
1.79208
0.0293156
2.13764
0.0125116
2.49921
-0.0101979
2.92115
-0.0410791
3.40941
-0.0857563
3.98894
-0.171521
4.82347
-0.352057
5.63366
-0.542979
7.08581
-0.614645
6.96543
-0.592402
5.61664
-0.339575
3.36406
-0.0599957
0.550349
-0.0883547
-0.223009
-0.0384312
-0.372139
0.0176156
-0.298103
-0.0175124
0.0318493
0.26597
0.0607253
0.889987
0.0720115
1.40829
0.07045
1.79364
0.0622505
2.14584
0.0491049
2.51235
0.0311511
2.9391
0.00729893
3.43327
-0.0281825
4.02442
-0.0841975
4.87948
-0.207566
5.75703
-0.324468
7.20271
-0.412864
7.05382
-0.516986
5.72076
-0.496046
3.34312
-0.581795
0.636099
-0.594717
-0.210087
-0.416465
-0.550391
-0.207133
-0.507436
-0.224645
0.040594
0.225376
0.0812947
0.849286
0.100527
1.38905
0.104696
1.78947
0.102018
2.14852
0.0940135
2.52036
0.083902
2.94921
0.0695968
3.44757
0.0496546
4.04437
0.0287068
4.90043
0.0118763
5.77386
-0.0269396
7.24153
-0.0873389
7.11422
-0.215607
5.84903
-0.466719
3.59423
-0.802847
0.972228
-0.827257
-0.185677
-0.634779
-0.742869
-0.331496
-0.810718
-0.556142
0.0490235
0.176352
0.106017
0.792293
0.138821
1.35625
0.151126
1.77717
0.154646
2.145
0.151857
2.52315
0.149952
2.95112
0.148433
3.44909
0.153899
4.0389
0.169243
4.88508
0.263629
5.67948
0.402444
7.10272
0.462634
7.05403
0.495494
5.81617
0.259333
3.83039
-0.233997
1.46556
-0.544867
0.125192
-0.593752
-0.693984
-0.303954
-1.10052
-0.860096
0.0536312
0.122721
0.13121
0.714714
0.180351
1.30711
0.203407
1.75411
0.215538
2.13287
0.221169
2.51752
0.229326
2.94296
0.242874
3.43554
0.274041
4.00773
0.338654
4.82047
0.566162
5.45197
1.02432
6.64456
1.42359
6.65475
1.83155
5.40821
1.75698
3.90496
1.13202
2.09052
0.599168
0.658046
0.171239
-0.266055
-0.0142386
-0.915038
-0.874334
0.0491561
0.0735652
0.156029
0.607841
0.231265
1.23187
0.269327
1.71605
0.290787
2.11141
0.304121
2.50418
0.322336
2.92475
0.349978
3.4079
0.408631
3.94908
0.536787
4.69232
0.877318
5.11144
1.5667
5.95518
2.00273
6.21872
2.28709
5.12385
2.2962
3.89585
1.88905
2.49767
1.40376
1.14334
0.924715
0.212987
0.359715
-0.350038
-0.514619
0.0376982
0.0358671
0.178483
0.467056
0.28333
1.12702
0.341848
1.65753
0.374899
2.07836
0.399666
2.47941
0.426481
2.89793
0.466062
3.36832
0.53725
3.87789
0.693324
4.53624
1.04833
4.75643
1.76963
5.23388
2.17245
5.8159
2.40676
4.88954
2.44107
3.86154
2.12595
2.81279
1.56433
1.70496
0.970574
0.806746
0.420688
0.199848
-0.0939315
0.028809
0.0070581
0.20055
0.295315
0.344041
0.983534
0.426963
1.57461
0.471428
2.0339
0.506006
2.44483
0.535344
2.86859
0.580381
3.32328
0.646112
3.81216
0.775315
4.40704
1.02062
4.51113
1.62869
4.6258
2.01189
5.43271
2.13528
4.76615
2.10231
3.89451
1.86933
3.04577
1.4151
2.15919
0.903281
1.31856
0.387565
0.715564
0.293633
0.0294721
-0.022414
0.194033
0.130755
0.401359
0.776207
0.518647
1.45732
0.577845
1.9747
0.621641
2.40104
0.652789
2.83745
0.688955
3.28712
0.725765
3.77535
0.804843
4.32796
0.933326
4.38265
1.31839
4.24074
1.72596
5.02513
1.76422
4.72789
1.67716
3.98157
1.47755
3.24537
1.12686
2.50989
0.693232
1.75219
0.281224
1.12757
0.574858
0.032957
-0.055371
0.137848
0.0258633
0.357259
0.556796
0.501601
1.31298
0.566144
1.91015
0.592367
2.37482
0.602015
2.8278
0.598256
3.29088
0.585701
3.7879
0.579198
4.33446
0.592855
4.36899
0.734248
4.09935
0.93704
4.82234
0.935852
4.72908
0.850999
4.06643
0.731632
3.36474
0.559287
2.68223
0.338803
1.97267
0.129219
1.33716
0.704077
0.0227193
-0.0780903
0.064211
-0.0156284
0.189026
0.431981
0.308813
1.19319
0.382868
1.8361
0.421106
2.33658
0.443532
2.80537
0.452098
3.28231
0.452654
3.78735
0.444946
4.34217
0.430586
4.38335
0.497022
4.03291
0.641662
4.6777
0.649172
4.72157
0.579947
4.13565
0.484934
3.45975
0.362954
2.80422
0.208994
2.12663
0.0676291
1.47852
0.771706
0.0134776
-0.091568
0.01642
-0.0185707
0.0572681
0.391133
0.133288
1.11717
0.200847
1.76854
0.252039
2.28539
0.29125
2.76616
0.319736
3.25383
0.332869
3.77421
0.327824
4.34722
0.307563
4.40361
0.32936
4.01111
0.423752
4.58331
0.427327
4.71799
0.374492
4.18849
0.29532
3.53892
0.203919
2.89562
0.100016
2.23053
0.0116261
1.56691
0.783332
-0.0045122
-0.0870558
-0.0331163
0.0100334
-0.0465038
0.40452
-0.00916232
1.07983
0.0473532
1.71202
0.104667
2.22807
0.156416
2.71441
0.197754
3.21249
0.220757
3.75121
0.225799
4.34217
0.211936
4.41748
0.215954
4.0071
0.270588
4.52868
0.265293
4.72328
0.221192
4.23259
0.162586
3.59753
0.0977564
2.96045
0.0344786
2.29381
-0.0168822
1.61827
0.76645
-0.0238162
-0.0632396
-0.0742619
0.0604791
-0.115692
0.44595
-0.111262
1.0754
-0.0620787
1.66284
-0.0018183
2.16781
0.0535836
2.65901
0.0978507
3.16822
0.129435
3.71963
0.147177