#           x             T        mag(U)             p
       -4.995       348.432   2.26103e-13        100000
       -4.985       348.432   1.25451e-12        100000
       -4.975       348.432   1.26909e-12        100000
       -4.965       348.432   1.94741e-12        100000
       -4.955       348.432   2.24645e-12        100000
       -4.945       348.432   3.20921e-12        100000
       -4.935       348.432   4.07715e-12        100000
       -4.925       348.432   4.91592e-12        100000
       -4.915       348.432   6.63722e-12        100000
       -4.905       348.432   5.34625e-12        100000
       -4.895       348.432   4.17197e-12        100000
       -4.885       348.432   3.31132e-12        100000
       -4.875       348.432    3.9021e-12        100000
       -4.865       348.432   5.74011e-12        100000
       -4.855       348.432   6.97273e-12        100000
       -4.845       348.432   7.16966e-12        100000
       -4.835       348.432   5.76928e-12        100000
       -4.825       348.432   3.43531e-12        100000
       -4.815       348.432   1.58272e-12        100000
       -4.805       348.432   2.21727e-12        100000
       -4.795       348.432    3.2165e-12        100000
       -4.785       348.432    4.2595e-12        100000
       -4.775       348.432   4.98156e-12        100000
       -4.765       348.432   4.41266e-12        100000
       -4.755       348.432   3.58118e-12        100000
       -4.745       348.432   2.09327e-12        100000
       -4.735       348.432   2.21727e-12        100000
       -4.725       348.432   3.40613e-12        100000
       -4.715       348.432    4.2522e-12        100000
       -4.705       348.432   4.68252e-12        100000
       -4.695       348.432    4.2522e-12        100000
       -4.685       348.432   4.01151e-12        100000
       -4.675       348.432   4.11361e-12        100000
       -4.665       348.432   3.46449e-12        100000
       -4.655       348.432    2.9904e-12        100000
       -4.645       348.432   2.46526e-12        100000
       -4.635       348.432   1.08676e-12        100000
       -4.625       348.432   1.83071e-12        100000
       -4.615       348.432   3.92399e-12        100000
       -4.605       348.432   6.65911e-12        100000
       -4.595       348.432   7.95008e-12        100000
       -4.585       348.432   7.85526e-12        100000
       -4.575       348.432   6.92167e-12        100000
       -4.565       348.432   7.16237e-12        100000
       -4.555       348.432   6.09749e-12        100000
       -4.545       348.432   5.25143e-12        100000
       -4.535       348.432   5.55776e-12        100000
       -4.525       348.432   4.60958e-12        100000
       -4.515       348.432    3.5666e-12        100000
       -4.505       348.432   2.61113e-12        100000
       -4.495       348.432   4.31055e-12        100000
       -4.485       348.432   4.84299e-12        100000
       -4.475       348.432    4.3616e-12        100000
       -4.465       348.432    3.2165e-12        100000
       -4.455       348.432   2.61113e-12        100000
       -4.445       348.432   4.30325e-12        100000
       -4.435       348.432   4.79193e-12        100000
       -4.425       348.432   5.84221e-12        100000
       -4.415       348.432   5.47024e-12        100000
       -4.405       348.432   4.98156e-12        100000
       -4.395       348.432   4.04798e-12        100000
       -4.385       348.432    3.4499e-12        100000
       -4.375       348.432   4.20115e-12        100000
       -4.365       348.432   5.71093e-12        100000
       -4.355       348.432   6.06103e-12        100000
       -4.345       348.432   5.90786e-12        100000
       -4.335       348.432   5.79845e-12        100000
       -4.325       348.432   6.44029e-12        100000
       -4.315       348.432   5.57235e-12        100000
       -4.305       348.432   4.91592e-12        100000
       -4.295       348.432   5.50671e-12        100000
       -4.285       348.432   6.71016e-12        100000
       -4.275       348.432   6.50593e-12        100000
       -4.265       348.432   8.16159e-12        100000
       -4.255       348.432   9.14623e-12        100000
       -4.245       348.432   8.56274e-12        100000
       -4.235       348.432   9.51822e-12        100000
       -4.225       348.432   1.02549e-11        100000
       -4.215       348.432   1.07071e-11        100000
       -4.205       348.432   8.65756e-12        100000
       -4.195       348.432   5.63799e-12        100000
       -4.185       348.432   2.69136e-12        100000
       -4.175       348.432   3.39884e-12        100000
       -4.165       348.432   5.92245e-12        100000
       -4.155       348.432   7.17695e-12        100000
       -4.145       348.432    7.1259e-12        100000
       -4.135       348.432   5.90785e-12        100000
       -4.125       348.432   5.35354e-12        100000
       -4.115       348.432   5.03262e-12        100000
       -4.105       348.432   6.14854e-12        100000
       -4.095       348.432   7.54892e-12        100000
       -4.085       348.432   8.78885e-12        100000
       -4.075       348.432   9.10977e-12        100000
       -4.065       348.432   8.81073e-12        100000
       -4.055       348.432   8.75238e-12        100000
       -4.045       348.432   7.75315e-12        100000
       -4.035       348.432   7.83338e-12        100000
       -4.025       348.432   7.67292e-12        100000
       -4.015       348.432   8.51169e-12        100000
       -4.005       348.432   9.69326e-12        100000
       -3.995       348.432   9.22647e-12        100000
       -3.985       348.432   8.43146e-12        100000
       -3.975       348.432   6.21419e-12        100000
       -3.965       348.432   3.83646e-12        100000
       -3.955       348.432   3.50825e-12        100000
       -3.945       348.432    4.2522e-12        100000
       -3.935       348.432   3.59577e-12        100000
       -3.925       348.432   4.74087e-12        100000
       -3.915       348.432   6.46946e-12        100000
       -3.905       348.432   7.45411e-12        100000
       -3.895       348.432   6.39653e-12        100000
       -3.885       348.432    6.2069e-12        100000
       -3.875       348.432    7.1259e-12        100000
       -3.865       348.432   8.74509e-12        100000
       -3.855       348.432   7.26448e-12        100000
       -3.845       348.432   3.77081e-12        100000
       -3.835       348.432   1.59731e-12        100000
       -3.825       348.432   1.59002e-12        100000
       -3.815       348.432   3.59577e-12        100000
       -3.805       348.432   6.18501e-12        100000
       -3.795       348.432   7.03108e-12        100000
       -3.785       348.432    5.3973e-12        100000
       -3.775       348.432   3.54472e-12        100000
       -3.765       348.432   3.59577e-12        100000
       -3.755       348.432   5.36813e-12        100000
       -3.745       348.432   7.47599e-12        100000
       -3.735       348.432   8.46793e-12        100000
       -3.725       348.432   6.59346e-12        100000
       -3.715       348.432   4.06985e-12        100000
       -3.705       348.432   2.73512e-12        100000
       -3.695       348.432   3.23838e-12        100000
       -3.685       348.432   4.28866e-12        100000
       -3.675       348.432   5.42648e-12        100000
       -3.665       348.432    4.2449e-12        100000
       -3.655       348.432   3.64683e-12        100000
       -3.645       348.432   3.12898e-12        100000
       -3.635       348.432   3.35508e-12        100000
       -3.625       348.432   3.69788e-12        100000
       -3.615       348.432   3.60307e-12        100000
       -3.605       348.432   1.97658e-12        100000
       -3.595       348.432   1.19616e-12        100000
       -3.585       348.432   2.12975e-12        100000
       -3.575       348.432   2.70594e-12        100000
       -3.565       348.432    4.1355e-12        100000
       -3.555       348.432   6.03914e-12        100000
       -3.545       348.432   6.41841e-12        100000
       -3.535       348.432    5.2879e-12        100000
       -3.525       348.432   4.10632e-12        100000
       -3.515       348.432    4.0188e-12        100000
       -3.505       348.432   3.46448e-12        100000
       -3.495       348.432   2.67677e-12        100000
       -3.485       348.432   1.47332e-12        100000
       -3.475       348.432   9.04413e-13        100000
       -3.465       348.432   6.12667e-13        100000
       -3.455       348.432    2.4069e-13        100000
       -3.445       348.432   1.85988e-12        100000
       -3.435       348.432   4.39807e-12        100000
       -3.425       348.432   5.56506e-12        100000
       -3.415       348.432   3.72706e-12        100000
       -3.405       348.432   2.16622e-12        100000
       -3.395       348.432   2.33397e-12        100000
       -3.385       348.432   3.44989e-12        100000
       -3.375       348.432   4.90133e-12        100000
       -3.365       348.432    4.1355e-12        100000
       -3.355       348.432   3.53013e-12        100000
       -3.345       348.432   1.68484e-12        100000
       -3.335       348.432   1.42226e-12        100000
       -3.325       348.432   2.57466e-12        100000
       -3.315       348.432   4.15738e-12        100000
       -3.305       348.432   5.43377e-12        100000
       -3.295       348.432    4.2595e-12        100000
       -3.285       348.432   7.65833e-13        100000
       -3.275       348.432   6.12667e-13        100000
       -3.265       348.432   1.00653e-12        100000
       -3.255       348.432   3.03416e-12        100000
       -3.245       348.432   2.76429e-12        100000
       -3.235       348.432   2.17351e-12        100000
       -3.225       348.432   1.02111e-12        100000
       -3.215       348.432   6.63722e-13        100000
       -3.205       348.432   1.64107e-12        100000
       -3.195       348.432   3.25297e-12        100000
       -3.185       348.432   4.87945e-12        100000
       -3.175       348.432   5.61611e-12        100000
       -3.165       348.432   4.50748e-12        100000
       -3.155       348.432   3.06333e-12        100000
       -3.145       348.432   5.03262e-13        100000
       -3.135       348.432   1.85258e-12        100000
       -3.125       348.432    3.7927e-13        100000
       -3.115       348.432   1.70672e-12        100000
       -3.105       348.432   1.76506e-12        100000
       -3.095       348.432   7.29365e-13        100000
       -3.085       348.432   3.42802e-13        100000
       -3.075       348.432   7.14778e-13        100000
       -3.065       348.432   1.91093e-12        100000
       -3.055       348.432   2.48714e-12        100000
       -3.045       348.432   1.68484e-12        100000
       -3.035       348.432   2.91746e-13        100000
       -3.025       348.432   5.83492e-13        100000
       -3.015       348.432   1.20346e-12        100000
       -3.005       348.432   2.01305e-12        100000
       -2.995       348.432   1.42956e-12        100000
       -2.985       348.432   1.67754e-13        100000
       -2.975       348.432   5.68905e-13        100000
       -2.965       348.432   3.42802e-13        100000
       -2.955       348.432   8.75238e-13        100000
       -2.945       348.432   1.08676e-12        100000
       -2.935       348.432   1.61919e-12        100000
       -2.925       348.432   7.29365e-13        100000
       -2.915       348.432   4.15738e-13        100000
       -2.905       348.432   1.09405e-12        100000
       -2.895       348.432     1.838e-12        100000
       -2.885       348.432   2.12974e-12        100000
       -2.875       348.432   1.39309e-12        100000
       -2.865       348.432   3.28214e-13        100000
       -2.855       348.432   5.25143e-13        100000
       -2.845       348.432   8.09595e-13        100000
       -2.835       348.432   5.47024e-13        100000
       -2.825       348.432   1.16698e-12        100000
       -2.815       348.432   8.67944e-13        100000
       -2.805       348.432    6.5643e-14        100000
       -2.795       348.432   1.67754e-13        100000
       -2.785       348.432   2.84453e-13        100000
       -2.775       348.432   7.95008e-13        100000
       -2.765       348.432   1.47332e-12        100000
       -2.755       348.432   5.10555e-14        100000
       -2.745       348.432   1.47331e-12        100000
       -2.735       348.432   6.78309e-13        100000
       -2.725       348.432     1.043e-12        100000
       -2.715       348.432     2.633e-12        100000
       -2.705       348.432   3.74164e-12        100000
       -2.695       348.432    2.7497e-12        100000
       -2.685       348.432   8.09595e-13        100000
       -2.675       348.432   1.07946e-12        100000
       -2.665       348.432   1.24721e-12        100000
       -2.655       348.432   7.51246e-13        100000
       -2.645       348.432   2.77159e-13        100000
       -2.635       348.432    1.1451e-12        100000
       -2.625       348.432   1.73589e-12        100000
       -2.615       348.432   1.59002e-12        100000
       -2.605       348.432   2.04222e-13        100000
       -2.595       348.432   9.99231e-13        100000
       -2.585       348.432   6.56429e-13        100000
       -2.575       348.432   8.75237e-13        100000
       -2.565       348.432   1.13052e-12        100000
       -2.555       348.432   2.25374e-12        100000
       -2.545       348.432   2.85182e-12        100000
       -2.535       348.432   4.05527e-12        100000
       -2.525       348.432   4.63876e-12        100000
       -2.515       348.432   3.74165e-12        100000
       -2.505       348.432   2.67677e-12        100000
       -2.495       348.432   1.55354e-12        100000
       -2.485       348.432    3.7927e-13        100000
       -2.475       348.432   2.33397e-12        100000
       -2.465       348.432   2.46525e-12        100000
       -2.455       348.432   4.30325e-13        100000
       -2.445       348.432   2.61842e-12        100000
       -2.435       348.432   4.06986e-12        100000
       -2.425       348.432   2.99769e-12        100000
       -2.415       348.432   1.99846e-12        100000
       -2.405       348.432   1.02111e-13        100000
       -2.395       348.432   1.05029e-12        100000
       -2.385       348.432   4.15738e-13        100000
       -2.375       348.432   1.38579e-12        100000
       -2.365       348.432   1.73589e-12        100000
       -2.355       348.432   2.55278e-13        100000
       -2.345       348.432   1.00652e-12        100000
       -2.335       348.432   1.70672e-12        100000
       -2.325       348.432   1.79424e-12        100000
       -2.315       348.432   7.07485e-13        100000
       -2.305       348.432    4.0115e-13        100000
       -2.295       348.432   2.34855e-12        100000
       -2.285       348.432   3.12898e-12        100000
       -2.275       348.432    3.4426e-12        100000
       -2.265       348.432   3.27485e-12        100000
       -2.255       348.432   3.12168e-12        100000
       -2.245       348.432   3.23109e-12        100000
       -2.235       348.432   3.04874e-12        100000
       -2.225       348.432   2.42149e-12        100000
       -2.215       348.432   1.91094e-12        100000
       -2.205       348.432   3.13627e-13        100000
       -2.195       348.432   2.33397e-13        100000
       -2.185       348.432   7.29364e-13        100000
       -2.175       348.432   6.19961e-13        100000
       -2.165       348.432   1.96928e-13        100000
       -2.155       348.432   9.26293e-13        100000
       -2.145       348.432   7.07484e-13        100000
       -2.135       348.432   3.42801e-13        100000
       -2.125       348.432   5.76199e-13        100000
       -2.115       348.432   1.45144e-12        100000
       -2.105       348.432   2.84452e-12        100000
       -2.095       348.432   4.62417e-12        100000
       -2.085       348.432   4.65335e-12        100000
       -2.075       348.432   2.22456e-12        100000
       -2.065       348.432   3.42802e-13        100000
       -2.055       348.432   1.44414e-12        100000
       -2.045       348.432    1.0357e-12        100000
       -2.035       348.432   5.47024e-13        100000
       -2.025       348.432   1.22534e-12        100000
       -2.015       348.432   2.11515e-13        100000
       -2.005       348.432   2.62571e-12        100000
       -1.995       348.432   2.73511e-12        100000
       -1.985       348.432   2.06411e-12        100000
       -1.975       348.432   8.60651e-13        100000
       -1.965       348.432   8.02302e-13        100000
       -1.955       348.432   9.91937e-13        100000
       -1.945       348.432   8.53357e-13        100000
       -1.935       348.432     8.023e-14        100000
       -1.925       348.432   1.23992e-13        100000
       -1.915       348.432   6.41841e-13        100000
       -1.905       348.432   3.24567e-12        100000
       -1.895       348.432   4.21573e-12        100000
       -1.885       348.432   4.41266e-12        100000
       -1.875       348.432   3.73435e-12        100000
       -1.865       348.432   3.68329e-12        100000
       -1.855       348.432   4.23032e-12        100000
       -1.845       348.432   4.03339e-12        100000
       -1.835       348.432   3.37696e-12        100000
       -1.825       348.432   1.59002e-12        100000
       -1.815       348.432   2.69865e-13        100000
       -1.805       348.432   8.75238e-13        100000
       -1.795       348.432   2.77159e-13        100000
       -1.785       348.432   3.05604e-12        100000
       -1.775       348.432   5.18579e-12        100000
       -1.765       348.432   6.62264e-12        100000
       -1.755       348.432   5.88597e-12        100000
       -1.745       348.432   5.88597e-12        100000
       -1.735       348.432   5.52859e-12        100000
       -1.725       348.432   4.29596e-12        100000
       -1.715       348.432   2.96852e-12        100000
       -1.705       348.432    2.4142e-12        100000
       -1.695       348.432    2.2902e-12        100000
       -1.685       348.432   2.49443e-12        100000
       -1.675       348.432   2.55278e-12        100000
       -1.665       348.432   2.08598e-12        100000
       -1.655       348.432   3.11439e-12        100000
       -1.645       348.432   2.36314e-12        100000
       -1.635       348.432   1.16698e-12        100000
       -1.625       348.432   6.71015e-13        100000
       -1.615       348.432   8.82532e-13        100000
       -1.605       348.432   1.27639e-12        100000
       -1.595       348.432   1.96928e-12        100000
       -1.585       348.432   1.34203e-12        100000
       -1.575       348.432   1.05758e-12        100000
       -1.565       348.432   1.23992e-13        100000
       -1.555       348.432   1.31286e-12        100000
       -1.545       348.432    1.3858e-12        100000
       -1.535       348.432   5.17849e-13        100000
       -1.525       348.432   1.90364e-12        100000
       -1.515       348.432   2.97581e-12        100000
       -1.505       348.432   3.85105e-12        100000
       -1.495       348.432   5.25872e-12        100000
       -1.485       348.432   5.56506e-12        100000
       -1.475       348.432   5.06909e-12        100000
       -1.465       348.432   2.90287e-12        100000
       -1.455       348.432   8.16889e-13        100000
       -1.445       348.432   5.32436e-13        100000
       -1.435       348.432   2.01305e-12        100000
       -1.425       348.432    3.5593e-12        100000
       -1.415       348.432   5.59423e-12        100000
       -1.405       348.432   6.73204e-12        100000
       -1.395       348.432   6.14854e-12        100000
       -1.385       348.432   5.13473e-12        100000
       -1.375       348.432   3.93128e-12        100000
       -1.365       348.432   2.93204e-12        100000
       -1.355       348.432   2.20269e-12        100000
       -1.345       348.432   8.67944e-13        100000
       -1.335       348.432    1.1451e-12        100000
       -1.325       348.432   2.06411e-12        100000
       -1.315       348.432    3.5593e-12        100000
       -1.305       348.432   4.63876e-12        100000
       -1.295       348.432   6.25066e-12        100000
       -1.285       348.432     1.935e-11        100000
       -1.275       348.432   2.48087e-10        100000
       -1.265       348.432   3.76187e-09        100000
       -1.255       348.432   4.99049e-08        100000
       -1.245       348.432    5.6762e-07        100000
       -1.235       348.432   5.50685e-06        100000
       -1.225       348.432   4.53548e-05        100000
       -1.215       348.432   0.000315538       99999.9
       -1.205       348.431    0.00184467       99999.4
       -1.195       348.428    0.00901342       99996.6
       -1.185       348.418     0.0366255       99986.3
       -1.175       348.386      0.123345         99954
       -1.165       348.304      0.344541       99871.4
       -1.155       348.133      0.804818       99699.6
       -1.145       347.836       1.59946       99403.8
       -1.135       347.399       2.77122       98968.7
       -1.125       346.831       4.30015       98403.5
       -1.115       346.151       6.12716       97731.8
       -1.105       345.388       8.18376       96980.4
       -1.095       344.562       10.4099       96172.6
       -1.085       343.692       12.7594       95326.4
       -1.075       342.788       15.1991       94454.5
       -1.065       341.862       17.7055       93565.9
       -1.055       340.919       20.2623       92666.8
       -1.045       339.963       22.8579       91761.8
       -1.035       338.996       25.4835         90854
       -1.025       338.024       28.1331       89945.6
       -1.015       337.044       30.8018       89038.7
       -1.005       336.061       33.4857       88134.4
       -0.995       335.074       36.1823       87233.8
       -0.985       334.086       38.8891       86337.8
       -0.975       333.096       41.6046       85446.8
       -0.965       332.104       44.3271       84561.3
       -0.955       331.111       47.0558       83681.8
       -0.945       330.119       49.7898       82808.5
       -0.935       329.126       52.5281       81941.6
       -0.925       328.134       55.2703       81081.2
       -0.915       327.141        58.016       80227.7
       -0.905       326.149       60.7645       79380.9
       -0.895       325.158       63.5156       78540.9
       -0.885       324.167        66.269       77707.9
       -0.875       323.177       69.0245       76881.9
       -0.865       322.188       71.7817         76063
       -0.855         321.2       74.5406         75251
       -0.845       320.212       77.3009         74446
       -0.835       319.226       80.0625         73648
       -0.825       318.241       82.8253         72857
       -0.815       317.257        85.589       72073.1
       -0.805       316.274       88.3537       71296.2
       -0.795       315.293       91.1194       70526.1
       -0.785       314.312       93.8857         69763
       -0.775       313.333       96.6529       69006.8
       -0.765       312.355       99.4205       68257.5
       -0.755       311.379       102.189       67514.9
       -0.745       310.404       104.958       66779.2
       -0.735        309.43       107.726       66050.3
       -0.725       308.458       110.497         65328
       -0.715       307.487       113.267       64612.5
       -0.705       306.518       116.037       63903.6
       -0.695        305.55       118.808       63201.2
       -0.685       304.584       121.578       62505.6
       -0.675       303.618        124.35       61816.3
       -0.665       302.654       127.121       61133.6
       -0.655       301.692       129.892       60457.3
       -0.645       300.732       132.664       59787.3
       -0.635       299.772       135.435       59123.8
       -0.625       298.814       138.207       58466.5
       -0.615       297.858       140.978       57815.5
       -0.605       296.904        143.75       57170.7
       -0.595       295.951       146.523         56532
       -0.585       294.999       149.294       55899.5
       -0.575       294.048       152.066       55273.1
       -0.565       293.101       154.837       54652.7
       -0.555       292.153       157.609       54038.3
       -0.545       291.207       160.381       53429.8
       -0.535       290.264       163.152       52827.3
       -0.525       289.321       165.924       52230.6
       -0.515        288.38       168.695       51639.8
       -0.505       287.442       171.466       51054.7
       -0.495       286.505       174.236       50475.4
       -0.485       285.569       177.006       49901.9
       -0.475       284.634       179.776       49333.8
       -0.465       283.702       182.546       48771.5
       -0.455        282.77       185.315       48214.7
       -0.445       281.841       188.084       47663.4
       -0.435       280.914       190.852       47117.8
       -0.425       279.988       193.621       46577.4
       -0.415       279.064       196.387       46042.6
       -0.405       278.141       199.155       45513.1
       -0.395       277.221       201.921       44988.9
       -0.385       276.302       204.686       44470.2
       -0.375       275.385       207.451       43956.6
       -0.365        274.47       210.214       43448.4
       -0.355       273.556       212.977       42945.3
       -0.345       272.644       215.738       42447.4
       -0.335       271.735       218.499       41954.7
       -0.325       270.827       221.258       41467.2
       -0.315       269.922       224.015       40984.8
       -0.305       269.018       226.771       40507.5
       -0.295       268.116       229.525       40035.3
       -0.285       267.217       232.276       39568.2
       -0.275        266.32       235.026       39106.2
       -0.265       265.426       237.771       38649.3
       -0.255       264.534       240.514       38197.6
       -0.245       263.645       243.254       37750.9
       -0.235       262.759       245.988       37309.6
       -0.225       261.876       248.717       36873.4
       -0.215       260.996        251.44       36442.6
       -0.205       260.121       254.156       36017.3
       -0.195        259.25       256.862       35597.6
       -0.185       258.384       259.557       35183.9
       -0.175       257.523        262.24       34776.1
       -0.165        256.67       264.906         34375
       -0.155       255.824       267.552       33980.8
       -0.145       254.988       270.171       33594.3
       -0.135       254.164       272.757       33216.4
       -0.125       253.355       275.301       32848.3
       -0.115       252.565       277.787       32491.7
       -0.105         251.8       280.202       32148.7
       -0.095       251.068       282.517       31822.5
       -0.085       250.379       284.702       31517.2
       -0.075       249.744       286.717       31237.9
       -0.065        249.18       288.511       30990.8
       -0.055       248.704       290.033       30782.4
       -0.045       248.328       291.236       30618.2
       -0.035       248.058       292.104         30500
       -0.025       247.887        292.66       30424.4
       -0.015       247.791       292.967       30382.6
       -0.005       247.748       293.113       30362.7
        0.005       247.731       293.172       30354.8
        0.015       247.725       293.192         30352
        0.025       247.723       293.198       30351.2
        0.035       247.723         293.2       30350.8
        0.045       247.724       293.201       30350.7
        0.055       247.724       293.201       30350.7
        0.065       247.725       293.201       30350.7
        0.075       247.725       293.201       30350.7
        0.085       247.726       293.201       30350.7
        0.095       247.727       293.201       30350.7
        0.105       247.727       293.201       30350.7
        0.115       247.728       293.201       30350.7
        0.125       247.728       293.201       30350.6
        0.135       247.729       293.202       30350.6
        0.145        247.73       293.202       30350.6
        0.155       247.731       293.202       30350.6
        0.165       247.731       293.202       30350.5
        0.175       247.732       293.202       30350.5
        0.185       247.733       293.202       30350.5
        0.195       247.734       293.203       30350.5
        0.205       247.734       293.203       30350.5
        0.215       247.735       293.203       30350.4
        0.225       247.736       293.203       30350.4
        0.235       247.737       293.203       30350.4
        0.245       247.738       293.203       30350.4
        0.255       247.739       293.203       30350.4
        0.265        247.74       293.203       30350.4
        0.275       247.741       293.203       30350.4
        0.285       247.742       293.203       30350.4
        0.295       247.743       293.203       30350.4
        0.305       247.745       293.203       30350.4
        0.315       247.746       293.203       30350.3
        0.325       247.747       293.203       30350.3
        0.335       247.748       293.203       30350.3