/*--------------------------------*- C++ -*----------------------------------*\
| =========                 |                                                 |
| \\      /  F ield         | OpenFOAM: The Open Source CFD Toolbox           |
|  \\    /   O peration     | Version:  v2012                                 |
|   \\  /    A nd           | Website:  www.openfoam.com                      |
|    \\/     M anipulation  |                                                 |
\*---------------------------------------------------------------------------*/
FoamFile
{
    version     2.0;
    format      ascii;
    class       volScalarField;
    location    "72";
    object      p;
}
// * * * * * * * * * * * * * * * * * * * * * * * * * * * * * * * * * * * * * //

dimensions      [0 2 -2 0 0 0 0];


internalField   nonuniform List<scalar> 
2200
(
0.772664
0.751166
0.735264
0.719603
0.705001
0.692495
0.682159
0.674079
0.668395
0.665519
0.666057
0.669871
0.676267
0.684859
0.695557
0.708344
0.723145
0.73908
0.755128
0.776626
0.705081
0.701824
0.698902
0.69479
0.689338
0.682879
0.676282
0.670359
0.6659
0.663585
0.66413
0.667469
0.672676
0.679154
0.686161
0.692929
0.698602
0.702705
0.705557
0.70892
0.665135
0.665357
0.667426
0.668781
0.669183
0.668343
0.666383
0.66374
0.661241
0.659795
0.660412
0.662943
0.666265
0.669521
0.671873
0.672882
0.672615
0.671621
0.669983
0.669735
0.642633
0.644087
0.646684
0.649139
0.651595
0.653632
0.654809
0.655071
0.654743
0.654519
0.655202
0.656668
0.657919
0.658346
0.657688
0.656039
0.653895
0.651718
0.649112
0.647709
0.62823
0.630202
0.633026
0.635876
0.638754
0.641607
0.644097
0.646001
0.647274
0.64812
0.648935
0.64948
0.649306
0.648254
0.646428
0.644081
0.641553
0.63884
0.636054
0.634132
0.620833
0.622431
0.624644
0.627187
0.629872
0.632564
0.635187
0.637649
0.639726
0.641312
0.642282
0.642398
0.641633
0.640176
0.638324
0.636217
0.633911
0.631578
0.629485
0.62791
0.617349
0.618371
0.61965
0.621533
0.623702
0.6259
0.628138
0.630486
0.632783
0.634726
0.635862
0.635979
0.635283
0.634141
0.6328
0.631279
0.629607
0.628047
0.626941
0.625925
0.614612
0.61528
0.615921
0.61724
0.61888
0.620602
0.622406
0.624403
0.626562
0.628633
0.630016
0.630446
0.630225
0.629681
0.628964
0.628067
0.627051
0.626149
0.625714
0.625035
0.611272
0.611716
0.612122
0.613138
0.61443
0.615856
0.617412
0.619161
0.621129
0.623228
0.624902
0.625832
0.626212
0.626248
0.626038
0.625623
0.625085
0.624584
0.624411
0.623945
0.607111
0.607406
0.607772
0.608661
0.609801
0.611115
0.612611
0.614304
0.61623
0.618424
0.620478
0.621966
0.622881
0.623382
0.62356
0.623498
0.623259
0.62297
0.622858
0.622531
0.602254
0.602453
0.602831
0.603681
0.60481
0.606168
0.607761
0.609599
0.611703
0.614137
0.616627
0.618655
0.620044
0.620897
0.621355
0.62154
0.621492
0.621362
0.621276
0.621034
0.596914
0.597059
0.59744
0.598272
0.599447
0.600927
0.602706
0.604794
0.607234
0.610097
0.613156
0.615729
0.617545
0.618736
0.619451
0.619823
0.619992
0.620014
0.619962
0.619766
0.591103
0.59121
0.591594
0.592432
0.593692
0.595337
0.597368
0.599807
0.602731
0.606209
0.60991
0.613075
0.615352
0.616904
0.617921
0.618563
0.618956
0.619118
0.619111
0.618936
0.584867
0.584928
0.585322
0.586205
0.587587
0.589432
0.591745
0.594591
0.598081
0.602309
0.606837
0.610678
0.61351
0.615519
0.616939
0.617905
0.618548
0.618866
0.6189
0.618731
0.578092
0.578126
0.578556
0.579475
0.580996
0.583044
0.585654
0.588962
0.593129
0.598221
0.603785
0.608498
0.612002
0.614608
0.61653
0.617902
0.618822
0.619303
0.619387
0.619216
0.570635
0.570592
0.57103
0.572066
0.573817
0.576151
0.579163
0.58304
0.588003
0.594155
0.600801
0.606599
0.610989
0.61431
0.616817
0.618631
0.619868
0.620524
0.62066
0.620482
0.562249
0.562254
0.562689
0.563812
0.565818
0.568489
0.571985
0.576536
0.582409
0.589813
0.597893
0.604953
0.610451
0.61463
0.617817
0.620175
0.621772
0.622603
0.622792
0.6226
0.552703
0.552718
0.553178
0.554454
0.55676
0.559861
0.563988
0.569402
0.576427
0.585282
0.595083
0.60368
0.610428
0.615645
0.619627
0.62257
0.624576
0.625606
0.625849
0.625637
0.541653
0.541623
0.542198
0.543696
0.546358
0.55005
0.555008
0.561512
0.569963
0.580679
0.592446
0.602894
0.611066
0.617417
0.622276
0.625933
0.628406
0.629623
0.629909
0.62967
0.528503
0.528436
0.529129
0.531005
0.534223
0.538693
0.544728
0.552662
0.562935
0.575891
0.590065
0.602508
0.612313
0.619973
0.625876
0.630302
0.63327
0.634689
0.635004
0.634734
0.512886
0.512773
0.513556
0.515803
0.519808
0.525405
0.532906
0.54273
0.555351
0.571015
0.58798
0.602766
0.614401
0.623452
0.63046
0.635742
0.63923
0.640814
0.641138
0.640837
0.493941
0.493862
0.494884
0.497667
0.502639
0.509685
0.519153
0.531472
0.54708
0.566067
0.586161
0.603564
0.617128
0.627774
0.636055
0.642265
0.646262
0.647998
0.64829
0.647957
0.470557
0.47041
0.47175
0.475387
0.481836
0.491006
0.503226
0.51889
0.538228
0.561139
0.584854
0.605071
0.620799
0.633066
0.642615
0.649767
0.654225
0.656056
0.656273
0.655921
0.44039
0.440419
0.442551
0.447668
0.456533
0.468961
0.485081
0.505057
0.528876
0.556281
0.58403
0.607335
0.625296
0.639265
0.650163
0.65818
0.66296
0.664807
0.664909
0.664548
0.400734
0.400984
0.404562
0.412634
0.425515
0.442896
0.46437
0.489805
0.519019
0.551624
0.583775
0.610262
0.630519
0.646266
0.658443
0.667227
0.672171
0.6739
0.673868
0.673521
0.347869
0.348367
0.355545
0.368912
0.388379
0.413076
0.44163
0.473795
0.50932
0.547645
0.584362
0.614078
0.636634
0.654045
0.667448
0.676721
0.681424
0.68271
0.682547
0.682266
0.27891
0.281616
0.296999
0.318962
0.347485
0.381117
0.417896
0.457561
0.499943
0.544517
0.586299
0.619711
0.644926
0.664382
0.678979
0.688594
0.692886
0.693547
0.693432
0.693213
0.200537
0.210379
0.236024
0.267637
0.306358
0.349257
0.394339
0.441696
0.491303
0.542611
0.58995
0.627506
0.655724
0.677144
0.692996
0.70259
0.706218
0.706336
0.706354
0.706214
0.13046
0.145087
0.17758
0.218394
0.266882
0.318677
0.371822
0.426946
0.483814
0.541663
0.594358
0.63577
0.666675
0.689858
0.706532
0.715755
0.71882
0.718685
0.718835
0.718744
0.0770145
0.0909072
0.127882
0.174762
0.230786
0.290254
0.350929
0.413372
0.477095
0.541243
0.599219
0.644348
0.677529
0.702175
0.719581
0.729015
0.731416
0.73154
0.731788
0.731744
0.0328812
0.0459374
0.0869223
0.13782
0.199392
0.264911
0.332058
0.40097
0.470988
0.541198
0.604204
0.652863
0.688383
0.714639
0.732847
0.742532
0.745151
0.745639
0.745711
0.74579
-0.00431373
0.00864585
0.0523253
0.106247
0.172177
0.242521
0.315143
0.389757
0.465514
0.541319
0.609011
0.661126
0.699179
0.726967
0.746376
0.756598
0.759756
0.760266
0.760249
0.760334
-0.03689
-0.0236673
0.0221716
0.0787134
0.148311
0.222714
0.30005
0.379636
0.460516
0.541421
0.613639
0.669188
0.709585
0.739091
0.759739
0.770265
0.773674
0.774114
0.774141
0.774191
-0.0654884
-0.0524303
-0.00481423
0.0541545
0.126957
0.204861
0.286265
0.370195
0.455694
0.541408
0.618227
0.677105
0.719517
0.750334
0.771934
0.782915
0.786504
0.787023
0.787048
0.787089
-0.0916018
-0.0785131
-0.0295538
0.0317469
0.107383
0.18839
0.273397
0.361175
0.450976
0.541485
0.622703
0.684431
0.728719
0.760869
0.782904
0.794278
0.798202
0.798781
0.798808
0.798828
-0.115532
-0.102442
-0.0526098
0.0108959
0.0890606
0.172855
0.261069
0.352396
0.446299
0.541211
0.626294
0.691002
0.73731
0.770351
0.7927
0.80463
0.808639
0.809305
0.809311
0.809313
-0.138078
-0.124665
-0.0742299
-0.00875554
0.0715961
0.157918
0.249093
0.343691
0.441217
0.539979
0.629071
0.696937
0.745015
0.779144
0.801712
0.813764
0.817898
0.818607
0.818598
0.818581
-0.159364
-0.14559
-0.0946546
-0.0274685
0.0547695
0.143391
0.237213
0.334671
0.435376
0.537871
0.631257
0.702293
0.752327
0.787289
0.809989
0.822082
0.826044
0.82679
0.826753
0.826719
-0.179462
-0.165683
-0.114053
-0.0454041
0.0384264
0.129062
0.225202
0.325181
0.428844
0.535078
0.632656
0.707057
0.759272
0.795312
0.817908
0.829419
0.833238
0.833933
0.833901
0.833846
-0.198647
-0.184791
-0.132594
-0.0627395
0.0224381
0.11482
0.212975
0.315238
0.421714
0.531512
0.633166
0.711275
0.76625
0.803273
0.825525
0.836403
0.83974
0.840244
0.840174
0.8401
-0.217358
-0.203087
-0.150426
-0.0795628
0.00675046
0.100622
0.200557
0.304948
0.414051
0.527139
0.632826
0.71492
0.773073
0.811763
0.833629
0.843176
0.845596
0.845612
0.845584
0.845582
-0.235626
-0.220679
-0.167682
-0.0959516
-0.00865802
0.0865153
0.188039
0.294368
0.405835
0.521916
0.631552
0.717984
0.779882
0.820834
0.842628
0.850569
0.850897
0.850472
0.850095
0.849973
-0.253497
-0.237833
-0.184459
-0.111905
-0.023741
0.072561
0.17547
0.283504
0.397077
0.515861
0.629238
0.720266
0.786461
0.830819
0.853697
0.859407
0.857347
0.855849
0.855854
0.856858
-0.270757
-0.25454
-0.200767
-0.127428
-0.03848
0.0588034
0.162889
0.272375
0.387789
0.508984
0.625797
0.721554
0.792757
0.841522
0.867019
0.87198
0.866852
0.859901
0.855459
0.854929
-0.287449
-0.270819
-0.216579
-0.142477
-0.0528271
0.0452813
0.150325
0.261013
0.378036
0.501375
0.621194
0.721508
0.798068
0.85275
0.882942
0.888995
0.883268
0.87346
0.874322
0.878499
-0.303487
-0.286524
-0.231819
-0.157028
-0.0667707
0.0320193
0.13783
0.249509
0.367909
0.49309
0.615421
0.719901
0.802129
0.863519
0.900425
0.910834
0.903433
0.874278
0.837944
0.8067
-0.318884
-0.30169
-0.246522
-0.171143
-0.0804008
0.0189005
0.125271
0.237714
0.357229
0.483932
0.608314
0.716298
0.80376
0.872995
0.919138
0.936765
0.942347
0.914169
0.931852
0.995039
-0.333561
-0.31628
-0.260755
-0.184977
-0.093922
0.00569071
0.11239
0.22532
0.345568
0.473329
0.599227
0.709857
0.802005
0.878164
0.930772
0.953562
0.950241
0.919321
0.873815
0.892099
-0.347532
-0.330326
-0.274495
-0.198475
-0.107244
-0.00749886
0.0993164
0.212448
0.333024
0.461315
0.588087
0.700201
0.794455
0.87439
0.928952
0.952704
0.928639
0.867127
0.800104
0.786764
-0.360759
-0.343758
-0.287718
-0.211642
-0.120377
-0.0206716
0.0860621
0.199118
0.319601
0.447849
0.574742
0.68694
0.78074
0.85769
0.90739
0.905155
0.863154
0.779958
0.702364
0.675369
-0.373303
-0.356636
-0.300464
-0.224486
-0.133321
-0.0338222
0.0726296
0.185322
0.305311
0.43293
0.559063
0.669705
0.759055
0.824924
0.849981
0.830459
0.762981
0.65691
0.566706
0.541486
-0.385578
-0.369281
-0.313077
-0.237361
-0.146427
-0.0472669
0.0587421
0.170837
0.289979
0.416398
0.540806
0.647981
0.730307
0.779607
0.771443
0.731119
0.61166
0.484722
0.374315
0.344366
-0.398437
-0.382546
-0.326269
-0.250848
-0.160212
-0.0614497
0.0440137
0.155335
0.273355
0.398055
0.519692
0.621209
0.696208
0.719636
0.684558
0.589516
0.428365
0.271842
0.13934
0.10923
-0.412364
-0.396678
-0.340272
-0.265177
-0.174872
-0.0765157
0.0283494
0.138782
0.255451
0.377916
0.495656
0.590352
0.654587
0.648267
0.594656
0.438799
0.235489
0.0200905
-0.161977
-0.212767
-0.427501
-0.411937
-0.355236
-0.28036
-0.190356
-0.0924111
0.0117957
0.121215
0.236318
0.356072
0.468693
0.556787
0.60566
0.567442
0.477376
0.28584
0.0528504
-0.237433
-0.55864
-0.709074
-0.443892
-0.428228
-0.371179
-0.296515
-0.206775
-0.109241
-0.00573987
0.102571
0.21591
0.332535
0.439004
0.520298
0.55063
0.482065
0.341775
0.134525
-0.0998502
-0.444039
-1.02839
-1.59878
-0.461657
-0.445861
-0.388296
-0.313686
-0.224109
-0.126964
-0.0241979
0.0829227
0.194374
0.307678
0.407776
0.480863
0.491453
0.4068
0.211817
-0.0225099
-0.225359
-0.459524
-1.00982
-2.50715
-0.480786
-0.464661
-0.406553
-0.332029
-0.24258
-0.145826
-0.0438514
0.0619914
0.17138
0.281139
0.374889
0.438129
0.427071
0.347426
0.118075
-0.119821
-0.268221
-0.305955
-0.294971
-0.678124
-0.50124
-0.485073
-0.426283
-0.351806
-0.262508
-0.166263
-0.0652763
0.0390149
0.145986
0.25161
0.339377
0.391768
0.364186
0.295907
0.0680049
-0.134252
-0.245537
-0.254184
-0.201698
-0.241643
-0.522883
-0.506618
-0.447291
-0.373122
-0.284079
-0.188488
-0.0887032
0.0137946
0.117973
0.218898
0.30144
0.343342
0.308926
0.240736
0.0350901
-0.125266
-0.207987
-0.216404
-0.26414
-0.268167
-0.545687
-0.529592
-0.469718
-0.395935
-0.307179
-0.212442
-0.114115
-0.0137172
0.0873186
0.183392
0.260838
0.292745
0.260927
0.178438
0.00659452
-0.116231
-0.187075
-0.164044
-0.184497
-0.186185
-0.569351
-0.552977
-0.493184
-0.42019
-0.331792
-0.238161
-0.141528
-0.0434387
0.0541611
0.145455
0.217924
0.238595
0.219053
0.110435
-0.0290547
-0.111908
-0.151509
-0.199426
-0.173646
-0.182302
-0.593852
-0.577055
-0.517796
-0.445657
-0.357557
-0.26539
-0.170678
-0.0751362
0.0186483
0.105414
0.173574
0.183548
0.175577
0.0491294
-0.0662964
-0.130374
-0.108514
-0.168005
-0.148511
-0.153572
-0.617956
-0.600979
-0.54322
-0.472002
-0.384305
-0.294022
-0.201379
-0.108508
-0.0189877
0.0636923
0.128958
0.131191
0.123033
-0.00223146
-0.0936167
-0.145183
-0.132448
-0.148281
-0.153411
-0.151722
-0.641492
-0.624658
-0.568951
-0.498509
-0.41155
-0.323579
-0.233152
-0.143141
-0.0582188
0.0206205
0.0844265
0.0828889
0.0657233
-0.0448293
-0.107221
-0.139509
-0.177214
-0.149036
-0.154583
-0.149015
-0.663267
-0.647156
-0.5935
-0.524295
-0.439165
-0.353657
-0.265556
-0.178514
-0.0982179
-0.0234573
0.0398641
0.0390273
0.00971305
-0.0793621
-0.120056
-0.114419
-0.186701
-0.129197
-0.144275
-0.136376
-0.682788
-0.667802
-0.616275
-0.548419
-0.466471
-0.383352
-0.297889
-0.21406
-0.138041
-0.0680771
-0.005167
-0.00155033
-0.0355594
-0.098012
-0.126845
-0.0876558
-0.133662
-0.115149
-0.121152
-0.117807
-0.69832
-0.684944
-0.636088
-0.570472
-0.492493
-0.411878
-0.329388
-0.248981
-0.17675
-0.112448
-0.0504732
-0.039518
-0.0671156
-0.0990232
-0.114775
-0.0924149
-0.106227
-0.110386
-0.111721
-0.111799
-0.709155
-0.697916
-0.652487
-0.589561
-0.515531
-0.438132
-0.359164
-0.28252
-0.213637
-0.155392
-0.0948676
-0.0745902
-0.0897829
-0.0958699
-0.104287
-0.113472
-0.107482
-0.112133
-0.111321
-0.112398
-0.713834
-0.704965
-0.663727
-0.604451
-0.534635
-0.461144
-0.386118
-0.31345
-0.24782
-0.195197
-0.135973
-0.10837
-0.117057
-0.0964955
-0.106162
-0.132332
-0.117352
-0.122564
-0.117612
-0.118974
-0.712471
-0.705666
-0.66886
-0.613663
-0.548317
-0.479451
-0.4091
-0.340793
-0.278705
-0.230057
-0.172464
-0.140312
-0.139902
-0.109631
-0.118162
-0.156346
-0.127477
-0.13646
-0.130067
-0.131665
-0.70411
-0.69687
-0.665109
-0.615737
-0.555991
-0.492277
-0.426821
-0.362797
-0.304287
-0.258399
-0.203315
-0.16827
-0.152458
-0.117865
-0.0790323
-0.0697033
-0.0692099
-0.0771316
-0.0789963
-0.0820303
-0.682864
-0.674571
-0.651197
-0.609491
-0.556224
-0.498337
-0.438505
-0.378642
-0.322915
-0.278301
-0.225977
-0.184682
-0.160114
-0.149197
-0.13981
-0.169935
-0.180046
-0.176994
-0.174631
-0.169861
-0.639924
-0.632216
-0.624107
-0.594552
-0.550031
-0.498468
-0.443603
-0.386891
-0.33236
-0.287362
-0.236582
-0.186299
-0.208395
-0.279263
-0.446175
-0.596194
-0.620291
-0.606967
-0.555954
-0.507525
-0.600112
-0.597472
-0.595901
-0.573564
-0.538001
-0.493539
-0.443162
-0.388445
-0.332099
-0.282564
-0.23296
-0.161526
-0.175477
-0.252893
-0.373585
-0.420393
-0.383427
-0.323344
-0.278998
-0.258079
-0.576851
-0.578691
-0.568406
-0.55573
-0.527466
-0.486871
-0.43815
-0.383943
-0.32332
-0.263077
-0.206678
-0.100249
0.0229954
0.19884
0.363236
0.533602
0.663686
0.73856
0.780979
0.817306
-0.546536
-0.546019
-0.543547
-0.542588
-0.518924
-0.481877
-0.433954
-0.377433
-0.31118
-0.236409
-0.161005
-0.0326992
0.163645
0.461656
0.747882
0.990697
1.16683
1.26671
1.31263
1.32731
-0.535342
-0.533502
-0.536967
-0.528599
-0.511939
-0.478662
-0.43041
-0.371298
-0.300593
-0.214196
-0.120503
0.00361318
0.227967
0.541344
0.846538
1.10322
1.29451
1.40399
1.45208
1.4686
-0.52077
-0.519279
-0.522836
-0.514475
-0.510978
-0.477912
-0.427703
-0.366132
-0.292869
-0.200039
-0.0969959
0.00960281
0.227681
0.506306
0.780053
1.01605
1.20114
1.31205
1.36128
1.37485
-0.50936
-0.509233
-0.50843
-0.507693
-0.506095
-0.477218
-0.429554
-0.366781
-0.29105
-0.196755
-0.0939809
-0.00896402
0.177886
0.416072
0.643461
0.838746
0.996684
1.09336
1.13562
1.14607
-0.505585
-0.50634
-0.504076
-0.507789
-0.501123
-0.475908
-0.430017
-0.369455
-0.295627
-0.205097
-0.10668
-0.0390159
0.109399
0.309861
0.492924
0.645066
0.768018
0.844664
0.877184
0.884898
-0.500939
-0.501906
-0.500793
-0.505131
-0.50055
-0.481887
-0.436704
-0.376029
-0.304319
-0.220248
-0.127546
-0.0705106
0.0403974
0.205681
0.350622
0.4659
0.557443
0.615757
0.640482
0.646512
-0.490617
-0.490169
-0.487868
-0.48733
-0.480554
-0.479697
-0.444026
-0.385297
-0.315094
-0.237577
-0.1504
-0.0994263
-0.0201979
0.113676
0.226965
0.313499
0.380412
0.423824
0.44098
0.444673
-0.496776
-0.493416
-0.488243
-0.481758
-0.47832
-0.481516
-0.446992
-0.391077
-0.322186
-0.25194
-0.171121
-0.124064
-0.070227
0.0370506
0.124614
0.189072
0.238602
0.27085
0.282797
0.286808
-0.528645
-0.525532
-0.523468
-0.523107
-0.525328
-0.516298
-0.460492
-0.395707
-0.324402
-0.260545
-0.18696
-0.143273
-0.107511
-0.0221753
0.0445005
0.0927479
0.130717
0.155709
0.165062
0.167487
-0.585791
-0.588566
-0.596579
-0.605345
-0.603119
-0.569726
-0.480611
-0.401238
-0.322578
-0.262186
-0.196891
-0.156648
-0.131243
-0.0637319
-0.013548
0.0224918
0.0508831
0.0683607
0.076084
0.0782093
-0.59004
-0.59546
-0.610001
-0.623962
-0.621733
-0.573934
-0.480758
-0.393511
-0.313527
-0.255332
-0.199295
-0.163108
-0.142038
-0.0901408
-0.0533065
-0.0266973
-0.00674376
0.00471785
0.00941522
0.0101564
-0.491646
-0.498085
-0.516267
-0.527472
-0.52761
-0.491941
-0.426267
-0.35808
-0.290439
-0.237481
-0.192739
-0.162311
-0.142051
-0.104406
-0.0782924
-0.0600854
-0.047516
-0.0409731
-0.0389338
-0.0393842
-0.327569
-0.333688
-0.342519
-0.351277
-0.354369
-0.341465
-0.315434
-0.283392
-0.24364
-0.207168
-0.176267
-0.153611
-0.135232
-0.109254
-0.0920576
-0.0809598
-0.0742766
-0.0717714
-0.0719144
-0.0729736
-0.164313
-0.167258
-0.172699
-0.181781
-0.190873
-0.195803
-0.196853
-0.193493
-0.181178
-0.166568
-0.150465
-0.136799
-0.123976
-0.107295
-0.0973021
-0.0919449
-0.0897503
-0.0900041
-0.0914135
-0.0927384
-0.040954
-0.0426005
-0.0465284
-0.0550568
-0.0685116
-0.0843114
-0.100392
-0.113966
-0.120244
-0.123044
-0.11905
-0.11428
-0.108852
-0.0999851
-0.0958565
-0.0947506
-0.0955222
-0.0974684
-0.099374
-0.100753
0.0337915
0.0326261
0.0297928
0.021588
0.00595031
-0.014878
-0.0367505
-0.0568013
-0.0714379
-0.0839171
-0.0875399
-0.0897
-0.0910065
-0.088008
-0.0889158
-0.0912325
-0.0938781
-0.0965202
-0.0984422
-0.0997519
0.0684069
0.0676791
0.0655862
0.0583486
0.0433394
0.0221464
-0.000762864
-0.0224254
-0.0391941
-0.0543826
-0.0606734
-0.0664098
-0.0724538
-0.0740671
-0.0786193
-0.0830778
-0.0867918
-0.0896505
-0.0914134
-0.0926026
0.0785468
0.0780033
0.0763887
0.0705323
0.0579582
0.0394312
0.0182188
-0.0029531
-0.0198053
-0.0351038
-0.0416364
-0.0477133
-0.0551551
-0.0604492
-0.0669951
-0.072493
-0.0766272
-0.0795489
-0.0810639
-0.082097
0.075346
0.0749755
0.0737677
0.0693527
0.0596859
0.0450408
0.0272731
0.00814758
-0.00780288
-0.0228342
-0.0293834
-0.0346346
-0.0416523
-0.0483873
-0.0554395
-0.0610668
-0.0652514
-0.0681229
-0.0693403
-0.0701738
0.066013
0.0657859
0.0648975
0.0617209
0.0546157
0.0437101
0.0299759
0.0141893
0.000330208
-0.0140874
-0.0209413
-0.0256201
-0.0319353
-0.0383583
-0.0449287
-0.0501093
-0.0539603
-0.056584
-0.0575468
-0.0581981
0.0544554
0.0543425
0.0537108
0.0515365
0.0464917
0.0386403
0.0285446
0.0164766
0.0057399
-0.00711112
-0.0141101
-0.0187923
-0.0243723
-0.0297838
-0.0355047
-0.0399632
-0.0432782
-0.045543
-0.0462772
-0.0467673
0.0426938
0.0426737
0.0422355
0.04083
0.0373849
0.0318919
0.0246626
0.0157259
0.00816473
-0.00210525
-0.00806798
-0.0125558
-0.0175884
-0.0220989
-0.0269521
-0.0307008
-0.0334796
-0.0353821
-0.0359882
-0.0363644
0.0316201
0.0316264
0.0313236
0.0304534
0.0281913
0.0245176
0.019516
0.0130184
0.00800532
0.000475149
-0.0035099
-0.00696484
-0.011186
-0.0150757
-0.0192688
-0.022359
-0.0245894
-0.0260832
-0.026535
-0.0268146
0.0215236
0.0215388
0.0213527
0.0208642
0.0194521
0.0171596
0.0139544
0.0094546
0.00639522
0.00118156
-0.00106092
-0.00317792
-0.00617776
-0.00909631
-0.0124864
-0.014879
-0.016552
-0.0176356
-0.0179924
-0.0182322
0.012256
0.012278
0.0122253
0.0120652
0.0113318
0.0100969
0.00842702
0.0056525
0.00413667
0.000867884
-0.000241722
-0.00119554
-0.00293249
-0.00456591
-0.00703176
-0.00852209
-0.00955336
-0.0101592
-0.0102397
-0.0104066
0.00392899
0.00395077
0.00396063
0.00402189
0.00386603
0.0034801
0.00303806
0.00184127
0.00154437
0.000137559
3.00488e-05
-4.09136e-05
-0.000862804
-0.00129361
-0.00282122
-0.00350328
-0.00422543
-0.0045781
-0.00432602
-0.00429213
-1.07667
-0.242651
0.0271158
0.300995
0.479229
0.631152
0.751382
0.874432
1.01206
1.09787
-0.102625
0.301082
0.314701
0.501088
0.62122
0.728968
0.82116
0.903761
0.930293
0.889343
0.26855
0.480107
0.512384
0.647528
0.730607
0.808095
0.872085
0.920253
0.921875
0.936575
0.494113
0.634556
0.668624
0.768018
0.824131
0.87992
0.923861
0.955747
0.964589
0.988493
0.668939
0.768323
0.797923
0.863547
0.907762
0.947569
0.979172
1.00324
1.01287
1.04462
0.810066
0.877692
0.907744
0.949635
0.985241
1.01484
1.0388
1.05951
1.07347
1.10189
0.927836
0.977742
1.00305
1.03056
1.05781
1.08133
1.10111
1.12034
1.13513
1.16173
1.03075
1.06742
1.08829
1.10871
1.12927
1.1485
1.16584
1.18395
1.1988
1.22249
1.12423
1.15317
1.16938
1.18454
1.20053
1.21653
1.23205
1.24894
1.26256
1.28489
1.21221
1.2326
1.24738
1.2605
1.27403
1.28776
1.30126
1.31585
1.32739
1.34702
1.29752
1.31328
1.32708
1.33887
1.35077
1.3624
1.37354
1.3852
1.39288
1.40967
1.3827
1.39524
1.40894
1.42068
1.43132
1.44111
1.44993
1.45818
1.46174
1.47297
1.47143
1.48226
1.49573
1.50525
1.51281
1.52011
1.52728
1.53374
1.53485
1.5422
1.56983
1.57444
1.58263
1.58735
1.59075
1.59522
1.60122
1.60886
1.61277
1.62265
1.6831
1.66999
1.6627
1.657
1.65427
1.65561
1.66191
1.67428
1.68911
1.71878
1.80507
1.74902
1.718
1.70081
1.69259
1.69251
1.70139
1.72102
1.75278
1.82207
)
;

boundaryField
{
    wall-4
    {
        type            zeroGradient;
    }
    pressure-outlet-7
    {
        type            fixedValue;
        value           uniform 0;
    }
    velocity-inlet-6
    {
        type            zeroGradient;
    }
    velocity-inlet-5
    {
        type            zeroGradient;
    }
    frontAndBackPlanes
    {
        type            empty;
    }
}


// ************************************************************************* //
