/*--------------------------------*- C++ -*----------------------------------*\
| =========                 |                                                 |
| \\      /  F ield         | OpenFOAM: The Open Source CFD Toolbox           |
|  \\    /   O peration     | Version:  v2012                                 |
|   \\  /    A nd           | Website:  www.openfoam.com                      |
|    \\/     M anipulation  |                                                 |
\*---------------------------------------------------------------------------*/
FoamFile
{
    version     2.0;
    format      ascii;
    class       surfaceScalarField;
    location    "72";
    object      phi;
}
// * * * * * * * * * * * * * * * * * * * * * * * * * * * * * * * * * * * * * //

dimensions      [0 3 -1 0 0 0 0];
oriented        oriented;


internalField   nonuniform List<scalar> 
4262
(
0.107133
0.470856
0.0955671
0.705151
0.0693759
0.858494
0.0473499
1.02079
0.0309587
1.21491
0.0197464
1.44943
0.0123156
1.73329
0.00707455
2.07628
0.00312053
2.4892
-0.000702178
2.98611
-0.00444418
2.98603
-0.00813985
2.48894
-0.0130875
2.07598
-0.0202321
1.73301
-0.0311447
1.44913
-0.0471883
1.21456
-0.0689266
1.0205
-0.095193
0.858569
-0.107064
0.705457
0.470924
0.112858
0.357998
0.135249
0.68276
0.120349
0.873394
0.0978142
1.04332
0.0745687
1.23815
0.0528295
1.47117
0.0344554
1.75167
0.0203011
2.09043
0.00907682
2.50042
-0.000869866
2.99606
-0.0109347
2.9961
-0.0223116
2.50032
-0.0364587
2.09013
-0.0547481
1.7513
-0.0765924
1.47098
-0.100349
1.23832
-0.123535
1.04369
-0.137039
0.872073
-0.113576
0.681995
0.357348
0.0920332
0.265965
0.124948
0.649846
0.121062
0.87728
0.104739
1.05965
0.0860598
1.25683
0.0668955
1.49034
0.0478656
1.7707
0.0296875
2.10861
0.0129775
2.51713
-0.00292399
3.01196
-0.0185596
3.01173
-0.0344113
2.51617
-0.0518745
2.10759
-0.0703155
1.76974
-0.0886498
1.48931
-0.105816
1.25548
-0.119874
1.05775
-0.125272
0.877471
-0.0923774
0.649101
0.26497
0.0639454
0.202019
0.104726
0.609066
0.106481
0.875524
0.0951079
1.07102
0.0811886
1.27075
0.0664501
1.50507
0.0503412
1.78681
0.0332487
2.1257
0.0156479
2.53473
-0.00303342
3.03064
-0.0217365
3.03044
-0.0392213
2.53365
-0.0557169
2.12409
-0.0708594
1.78488
-0.0845959
1.50305
-0.0982782
1.26916
-0.110053
1.06952
-0.10705
0.874468
-0.0649106
0.606961
0.20006
0.037462
0.164557
0.0806632
0.565864
0.0908803
0.865307
0.0836268
1.07827
0.0709558
1.28342
0.0590441
1.51699
0.0459449
1.79991
0.0308279
2.14082
0.0136657
2.55189
-0.00555315
3.04986
-0.0240367
3.04892
-0.0397304
2.54935
-0.0535608
2.13792
-0.0657168
1.79704
-0.077001
1.51433
-0.0889261
1.28109
-0.0952449
1.07584
-0.0833621
0.862586
-0.0384509
0.56205
0.161609
0.0194305
0.145127
0.0570916
0.528203
0.0724263
0.849972
0.0702826
1.08042
0.0614656
1.29224
0.050598
1.52785
0.0394705
1.81103
0.0269311
2.15336
0.0119604
2.56687
-0.00577699
3.0676
-0.0233665
3.06651
-0.0379155
2.5639
-0.0494303
2.14943
-0.0592465
1.80685
-0.0690201
1.52411
-0.0766291
1.2887
-0.077397
1.07661
-0.0601782
0.845367
-0.0204395
0.522311
0.141169
0.010583
0.134544
0.0422211
0.496565
0.0582609
0.833933
0.0584631
1.08022
0.0521926
1.29851
0.0426661
1.53738
0.032107
1.82159
0.0205416
2.16492
0.00706713
2.58034
-0.00891755
3.08359
-0.0239992
3.08159
-0.0355531
2.57545
-0.0452781
2.15916
-0.0541936
1.81577
-0.0621131
1.53202
-0.0666206
1.29321
-0.0645846
1.07457
-0.0460852
0.826868
-0.01176
0.487986
0.129409
0.0065256
0.128018
0.0327894
0.470301
0.0489396
0.817783
0.0503839
1.07877
0.0452982
1.3036
0.0369703
1.54571
0.0273795
1.83118
0.0165627
2.17574
0.00450983
2.59239
-0.00952401
3.09762
-0.0232688
3.09534
-0.0343605
2.58654
-0.0435132
2.16831
-0.0510584
1.82331
-0.0574387
1.5384
-0.0605361
1.2963
-0.0567918
1.07083
-0.0374881
0.807564
-0.00794737
0.458445
0.121462
0.00466026
0.123358
0.0263855
0.448576
0.0420719
0.802096
0.0440539
1.07679
0.0392493
1.3084
0.0313979
1.55356
0.0220231
1.84056
0.0111731
2.18659
-0.000677811
2.60424
-0.0136414
3.11058
-0.0252886
3.10698
-0.034696
2.59595
-0.0428656
2.17648
-0.0497693
1.83022
-0.0551384
1.54377
-0.0572747
1.29844
-0.0520968
1.06565
-0.0322565
0.787723
-0.00644273
0.432631
0.115019
0.0036815
0.119676
0.0214643
0.430793
0.0364415
0.787119
0.0390751
1.07416
0.0346543
1.31282
0.027267
1.56095
0.0185083
1.84932
0.00857691
2.19652
-0.00268507
2.61551
-0.0152381
3.12314
-0.027096
3.11884
-0.03661
2.60546
-0.043912
2.18378
-0.0496478
1.83595
-0.054203
1.54833
-0.0553334
1.29957
-0.048824
1.05914
-0.0286256
0.767525
-0.00585972
0.409865
0.10916
0.00298393
0.116692
0.0173128
0.416464
0.031075
0.773357
0.0339045
1.07133
0.0296042
1.31712
0.0222642
1.56829
0.0133944
1.85819
0.0029461
2.20697
-0.00877163
2.62722
-0.0206829
3.13505
-0.0309965
3.12916
-0.0389352
2.6134
-0.0454901
2.19034
-0.0508399
1.8413
-0.0545459
1.55204
-0.0544898
1.29951
-0.0464488
1.0511
-0.0260229
0.747099
-0.00563873
0.389481
0.103521
0.00227205
0.11442
0.0135059
0.405231
0.0257997
0.761063
0.028646
1.06848
0.0244744
1.32129
0.0172583
1.5755
0.00870573
1.86674
-0.000780116
2.21646
-0.0112485
2.63769
-0.0234641
3.14726
-0.0346685
3.14036
-0.0427767
2.62151
-0.0483698
2.19593
-0.052457
1.84539
-0.055063
1.55464
-0.0543163
1.29877
-0.044825
1.04161
-0.0241917
0.726466
-0.00552145
0.370811
0.0979993
0.00162963
0.112791
0.0102851
0.396575
0.0209316
0.750416
0.0234534
1.06596
0.0192165
1.32553
0.0120094
1.58271
0.0031956
1.87555
-0.00722104
2.22687
-0.0191787
2.64965
-0.0312866
3.15937
-0.0407234
3.1498
-0.0471651
2.62795
-0.0519383
2.20071
-0.0554212
1.84887
-0.0569553
1.55618
-0.0551403
1.29695
-0.044198
1.03067
-0.0231276
0.705396
-0.00550509
0.353188
0.0924943
0.00071879
0.112072
0.00671012
0.390584
0.0154524
0.741674
0.0172744
1.06414
0.0126228
1.33018
0.00498984
1.59034
-0.00409309
1.88464
-0.0139938
2.23677
-0.0243494
2.66001
-0.0356148
3.17064
-0.0456932
3.15988
-0.052287
2.63454
-0.0560368
2.20446
-0.0586071
1.85144
-0.0592204
1.55679
-0.0563132
1.29405
-0.0439811
1.01833
-0.022459
0.683874
-0.00547627
0.336206
0.087018
4.11798e-05
0.112031
0.00381139
0.386814
0.010324
0.735161
0.0112361
1.06322
0.00619957
1.33522
-0.00167009
1.59821
-0.0110848
1.89405
-0.0218332
2.24752
-0.0339817
2.67215
-0.0462263
3.18288
-0.0548678
3.16852
-0.0596765
2.63935
-0.0625423
2.20732
-0.0641934
1.85309
-0.0637377
1.55633
-0.0591666
1.28947
-0.0449425
1.00411
-0.0224911
0.661422
-0.00559349
0.319308
0.0814245
-0.000892145
0.112923
0.000298464
0.385623
0.00469163
0.730768
0.00439169
1.06352
-0.00156613
1.34118
-0.0105777
1.60722
-0.0210787
1.90455
-0.03232
2.25876
-0.0435404
2.68337
-0.0541081
3.19345
-0.0621912
3.1766
-0.0667872
2.64395
-0.0688842
2.20942
-0.0699973
1.85421
-0.0687475
1.55508
-0.0625256
1.28325
-0.0464101
0.987993
-0.0228935
0.637906
-0.00575557
0.30217
0.0756689
-0.00188716
0.11481
-0.00312619
0.386862
-0.00187123
0.729513
-0.00377258
1.06543
-0.0105424
1.34795
-0.0200648
1.61675
-0.0310271
1.91551
-0.0429701
2.27071
-0.0555337
2.69594
-0.0679537
3.20587
-0.0758279
3.18447
-0.0789156
2.64704
-0.0798292
2.21033
-0.0791939
1.85357
-0.0761717
1.55206
-0.0679036
1.27498
-0.0492442
0.969334
-0.0239909
0.612652
-0.00607885
0.284258
0.0695901
-0.00317906
0.117989
-0.00678415
0.390467
-0.00882607
0.731555
-0.0125512
1.06915
-0.0205399
1.35593
-0.0315282
1.62773
-0.0440551
1.92804
-0.0574496
2.2841
-0.070714
2.7092
-0.0812402
3.21639
-0.0869492
3.19018
-0.0896418
2.64973
-0.089883
2.21057
-0.0887023
1.85239
-0.0848037
1.54816
-0.0741727
1.26435
-0.0527161
0.947877
-0.0254738
0.58541
-0.00647038
0.265255
0.0631197
-0.00458549
0.122575
-0.0112404
0.397122
-0.016802
0.737117
-0.023548
1.0759
-0.0328559
1.36524
-0.0449818
1.63986
-0.0585229
1.94158
-0.0728532
2.29843
-0.0867365
2.72309
-0.0987706
3.22843
-0.105907
3.19732
-0.1073
2.65112
-0.106022
2.20929
-0.102534
1.8489
-0.0960793
1.54171
-0.0826844
1.25096
-0.0577136
0.922907
-0.0275732
0.55527
-0.00696452
0.244646
0.0561552
-0.00599016
0.128565
-0.0160545
0.407186
-0.0255445
0.746607
-0.035229
1.08558
-0.0469377
1.37695
-0.0612968
1.65422
-0.0770161
1.9573
-0.0934298
2.31484
-0.109164
2.73882
-0.121356
3.24062
-0.125532
3.2015
-0.125087
2.65068
-0.122026
2.20623
-0.117478
1.84436
-0.109708
1.53394
-0.0926961
1.23395
-0.0633672
0.893578
-0.0299385
0.521841
-0.00747491
0.222182
0.0486803
-0.00828827
0.136853
-0.0230962
0.421994
-0.0381811
0.761692
-0.051155
1.09855
-0.0646472
1.39044
-0.0810992
1.67067
-0.0988553
1.97506
-0.116825
2.33281
-0.132803
2.7548
-0.144051
3.25187
-0.14829
3.20573
-0.147517
2.64991
-0.143716
2.20243
-0.137141
1.83778
-0.125856
1.52265
-0.104834
1.21292
-0.0704506
0.859194
-0.0326602
0.48405
-0.00798518
0.197507
0.0406951
-0.0107968
0.14765
-0.0303279
0.441525
-0.0513451
0.782709
-0.0696063
1.11682
-0.0870241
1.40786
-0.106537
1.69018
-0.127034
1.99555
-0.147082
2.35286
-0.164388
2.7721
-0.176029
3.26351
-0.178676
3.20838
-0.174243
2.64547
-0.167078
2.19527
-0.158289
1.82899
-0.144768
1.50913
-0.118411
1.18657
-0.0776057
0.818389
-0.0351079
0.441553
-0.00832433
0.170724
0.0323708
-0.0155267
0.163177
-0.0425863
0.468585
-0.070479
0.810602
-0.0935827
1.13992
-0.114571
1.42885
-0.137885
1.7135
-0.161168
2.01884
-0.182771
2.37447
-0.199985
2.78932
-0.209637
3.27316
-0.209065
3.20781
-0.203835
2.64024
-0.196299
2.18773
-0.185384
1.81808
-0.166821
1.49057
-0.134218
1.15396
-0.085983
0.770154
-0.0375232
0.393093
-0.00856287
0.141763
0.0238079
-0.0196907
0.182867
-0.0557468
0.504641
-0.0934272
0.848282
-0.124249
1.17074
-0.151345
1.45595
-0.179263
1.74142
-0.20555
2.04512
-0.228214
2.39713
-0.244559
2.80566
-0.25141
3.28001
-0.248297
3.2047
-0.239229
2.63117
-0.227145
2.17565
-0.212955
1.80389
-0.190652
1.46827
-0.15001
1.11332
-0.0924846
0.712628
-0.0384953
0.339103
-0.0082465
0.111515
0.0155614
-0.0331517
0.216019
-0.0828822
0.554371
-0.131351
0.896751
-0.16911
1.2085
-0.201537
1.48837
-0.233208
1.77309
-0.260072
2.07199
-0.281487
2.41854
-0.294836
2.81901
-0.297715
3.28289
-0.290033
3.19701
-0.277837
2.61898
-0.264945
2.16276
-0.247423
1.78636
-0.217219
1.43806
-0.166825
1.06293
-0.0993912
0.645195
-0.0391865
0.278899
-0.00785791
0.080186
0.00770348
-0.0474595
0.263479
-0.121802
0.628714
-0.186065
0.961013
-0.231973
1.25441
-0.270511
1.52691
-0.303489
1.80607
-0.328665
2.09717
-0.346603
2.43648
-0.355262
2.82767
-0.351629
3.27926
-0.337768
3.18315
-0.321433
2.60264
-0.303004
2.14433
-0.280084
1.76344
-0.242961
1.40094
-0.180302
1.00027
-0.1003
0.565193
-0.0369539
0.215553
-0.00742671
0.0506587
0.000276763
-0.0345556
0.298034
-0.0990818
0.69324
-0.158026
1.01996
-0.206803
1.30319
-0.25175
1.57186
-0.291957
1.84627
-0.330027
2.13523
-0.365217
2.47167
-0.393592
2.85605
-0.412389
3.29806
-0.418114
3.18888
-0.412026
2.59656
-0.400129
2.13243
-0.374611
1.73793
-0.317893
1.34422
-0.223272
0.905648
-0.114072
0.455993
-0.0407884
0.142269
-0.00864949
0.0185198
-0.00837273
-0.0126651
0.310699
-0.0481942
0.728769
-0.0911019
1.06286
-0.131509
1.34359
-0.171586
1.61193
-0.208134
1.88282
-0.242903
2.17
-0.273657
2.50243
-0.29741
2.8798
-0.309648
3.31029
-0.305654
3.18488
-0.294718
2.58562
-0.27676
2.11447
-0.245461
1.70663
-0.196104
1.29486
-0.125965
0.835509
-0.0573151
0.387343
-0.0214898
0.106444
-0.00486567
0.00189573
-0.0132384
-0.000384265
0.311084
-0.0238195
0.752204
-0.0538317
1.09288
-0.0855835
1.37535
-0.119005
1.64535
-0.151174
1.91499
-0.180991
2.19982
-0.206681
2.52812
-0.224927
2.89805
-0.231069
3.31644
-0.223909
3.17772
-0.208419
2.57013
-0.187559
2.09361
-0.160706
1.67977
-0.11767
1.25183
-0.0639775
0.781816
-0.0255779
0.348944
-0.0110984
0.0919641
-0.00317321
-0.00602945
-0.0164116
0.00122717
0.309856
-0.0142004
0.767632
-0.0355499
1.11423
-0.0597881
1.39958
-0.085932
1.6715
-0.112931
1.94199
-0.138715
2.2256
-0.160569
2.54997
-0.174951
2.91243
-0.177435
3.31892
-0.166732
3.16702
-0.148711
2.55211
-0.125494
2.0704
-0.0930061
1.64729
-0.0570178
1.21584
-0.0247078
0.749506
-0.00820949
0.332446
-0.00470905
0.0884637
-0.00209276
-0.00864574
-0.0185044
0.00528542
0.304571
-0.00234983
0.775267
-0.0210827
1.13296
-0.0431897
1.42169
-0.0662133
1.69452
-0.0889626
1.96474
-0.110372
2.24701
-0.128202
2.5678
-0.139141
2.92337
-0.138389
3.31817
-0.124656
3.15329
-0.10301
2.53046
-0.0762593
2.04365
-0.050308
1.62133
-0.0209523
1.18648
0.00243555
0.726119
0.00622429
0.328657
0.00240416
0.0922838
-2.46945e-05
-0.00621689
-0.0185291
0.00510804
0.299463
-0.000915129
0.78129
-0.0164507
1.14849
-0.0343922
1.43963
-0.0535148
1.71364
-0.0730689
1.98429
-0.0918169
2.26576
-0.107472
2.58346
-0.116377
2.93227
-0.113287
3.31508
-0.0978593
3.13786
-0.0764552
2.50906
-0.0512075
2.0184
-0.0208132
1.59094
0.00413563
1.16154
0.0163927
0.713861
0.0151297
0.32992
0.00733705
0.100076
0.00162319
-0.000503026
-0.0169059
0.00534695
0.294116
0.00190164
0.784736
-0.0109908
1.16139
-0.0279145
1.45656
-0.0457881
1.73152
-0.0635009
2.00201
-0.0801812
2.28244
-0.0937894
2.59706
-0.100929
2.93941
-0.0972864
3.31143
-0.0815972
3.12217
-0.0577729
2.48523
-0.0310434
1.99167
-0.0091378
1.56903
0.0106897
1.14171
0.0220732
0.702478
0.017884
0.334109
0.00906111
0.108899
0.00232271
0.00623537
-0.0145832
0.00278245
0.291334
-0.000277489
0.787796
-0.0115325
1.17264
-0.025907
1.47093
-0.0416577
1.74727
-0.0577496
2.0181
-0.0731312
2.29782
-0.085905
2.60984
-0.0926583
2.94616
-0.0887981
3.30757
-0.0727539
3.10613
-0.0514205
2.4639
-0.0289483
1.9692
-0.0023526
1.54244
0.016336
1.12302
0.0225765
0.696237
0.01853
0.338156
0.00966383
0.117765
0.0026206
0.0132786
-0.0119626
0.0021847
0.289149
9.97497e-06
0.78997
-0.0103967
1.18305
-0.0239828
1.48452
-0.0391779
1.76246
-0.0544215
2.03334
-0.0690382
2.31244
-0.0811947
2.62199
-0.0878916
2.95286
-0.0850997
3.30478
-0.07026
3.09129
-0.0476855
2.44133
-0.022978
1.94449
-0.0045024
1.52396
0.0120457
1.10647
0.0211008
0.687182
0.0169599
0.342296
0.00915827
0.125567
0.00260963
0.0198272
-0.00935294
-0.000448601
0.289597
-0.00405304
0.793575
-0.013009
1.192
-0.0248499
1.49636
-0.0386435
1.77626
-0.0530202
2.04772
-0.0671139
2.32653
-0.0794855
2.63437
-0.0871788
2.96056
-0.0850988
3.3027
-0.0700706
3.07626
-0.0505529
2.42181
-0.0309885
1.92492
-0.00728155
1.50026
0.00965304
1.08954
0.0155294
0.681306
0.0138026
0.344023
0.00765224
0.131717
0.00229674
0.0251827
-0.0070562
-0.000688884
0.290286
-0.00444666
0.797333
-0.0132942
1.20085
-0.0248409
1.5079
-0.038261
1.78968
-0.0522016
2.06166
-0.0663023
2.34063
-0.0790012
2.64706
-0.0872315
2.96879
-0.0869179
3.30239
-0.0744979
3.06384
-0.0543515
2.40166
-0.0316208
1.90219
-0.0145719
1.48321
0.00102311
1.07394
0.0106941
0.671635
0.00988745
0.34483
0.00591315
0.135692
0.00188838
0.0292075
-0.00516782
-0.00218318
0.29247
-0.00755126
0.802701
-0.0158884
1.20919
-0.0264495
1.51847
-0.0389629
1.80219
-0.0524891
2.07518
-0.0664233
2.35457
-0.0794225
2.66006
-0.0889363
2.9783
-0.0904885
3.30394
-0.0784834
3.05184
-0.0611277
2.38431
-0.043069
1.88413
-0.0204706
1.46061
-0.00375628
1.05723
0.00368548
0.664193
0.00613814
0.342377
0.0040396
0.13779
0.00143648
0.0318106
-0.00373134
-0.00328682
0.295756
-0.00785352
0.807267
-0.0161515
1.21749
-0.0267819
1.5291
-0.0391525
1.81456
-0.0523682
2.0884
-0.0663745
2.36857
-0.0799535
2.67364
-0.0907353
2.98908
-0.0947769
3.30798
-0.0863312
3.04339
-0.0690389
2.36701
-0.0456795
1.86078
-0.0280579
1.44299
-0.0121303
1.0413
-0.000379147
0.652442
0.0027308
0.339267
0.00258068
0.13794
0.00104362
0.0333477
-0.00268772
-0.00399928
0.299756
-0.00993768
0.813206
-0.0181166
1.22567
-0.0280656
1.53905
-0.0398039
1.8263
-0.0527485
2.10134
-0.0667129
2.38254
-0.0807454
2.68768
-0.0929695
3.00131
-0.0989891
3.314
-0.0921751
3.03658
-0.0762395
2.35108
-0.0574762
1.84201
-0.0329888
1.4185
-0.0142438
1.02255
-0.00423549
0.642434
0.000657518
0.334374
0.00142645
0.137171
0.000790173
0.033984
-0.00189755
-0.0040002
0.303756
-0.00975736
0.818963
-0.0179886
1.2339
-0.0280273
1.54908
-0.0396981
1.83797
-0.0523967
2.11404
-0.0664633
2.39661
-0.0811476
2.70236
-0.0947294
3.01489
-0.103563
3.32284
-0.101044
3.03406
-0.0858189
2.33585
-0.0605551
1.81675
-0.038519
1.39646
-0.0186071
1.00264
-0.00476328
0.62859
-0.000162764
0.329774
0.000700643
0.136308
-0.000185879
0.0348705
-0.00208343
-0.0041855
0.307941
-0.0109594
0.825737
-0.0191406
1.24208
-0.028621
1.55856
-0.0397767
1.84913
-0.0523005
2.12657
-0.0664072
2.41071
-0.0814832
2.71744
-0.0962822
3.02969
-0.107106
3.33366
-0.106252
3.0332
-0.0928604
2.32246
-0.0726053
1.79649
-0.0421634
1.36602
-0.0161325
0.976612
-0.00215604
0.614614
0.00527073
0.322347
0.00562558
0.135953
0.00277411
0.037722
0.000690685
-0.00408477
0.312026
-0.0104605
0.832113
-0.0185156
1.25013
-0.0280527
1.5681
-0.0391636
1.86024
-0.0514869
2.13889
-0.0656152
2.42484
-0.0811892
2.73301
-0.0972118
3.04571
-0.110743
3.34719
-0.114566
3.03703
-0.103058
2.31095
-0.076444
1.76988
-0.0469506
1.33653
-0.0157745
0.945436
0.00743424
0.591405
0.0146181
0.315163
0.00769832
0.142873
-0.00168098
0.0471012
-0.000990294
-0.00423053
0.316257
-0.0111326
0.839015
-0.0190207
1.25802
-0.0280327
1.57711
-0.0386478
1.87085
-0.0507809
2.15102
-0.064899
2.43896
-0.0807449
2.74886
-0.0976827
3.06265
-0.112829
3.36234
-0.118756
3.04295
-0.109952
2.30215
-0.0896848
1.74961
-0.051619
1.29846
-0.00962423
0.903441
0.0228001
0.55898
0.0453939
0.292569
0.0498665
0.138401
0.0297204
0.0672473
0.0287301
-0.00408698
0.320344
-0.0104526
0.84538
-0.0180815
1.26565
-0.0270617
1.58609
-0.037575
1.88137
-0.0494725
2.16292
-0.0634809
2.45297
-0.079625
2.765
-0.0975125
3.08053
-0.115074
3.3799
-0.12552
3.0534
-0.120414
2.29704
-0.0954177
1.72462
-0.058972
1.26202
-0.00955205
0.854021
0.0369718
0.512457
0.0698418
0.259699
0.0566606
0.151582
0.0244629
0.099445
0.0531929
-0.00406192
0.324406
-0.0107514
0.85207
-0.0181681
1.27307
-0.0265974
1.59452
-0.0366098
1.89138
-0.0482496
2.17456
-0.0621726
2.46689
-0.0784621
2.78129
-0.0969614
3.09903
-0.115767
3.3987
-0.127363
3.065
-0.126496
2.29618
-0.110964
1.70908
-0.0696982
1.22075
-0.0126984
0.797022
0.0572052
0.442553
0.151408
0.165497
0.211142
0.0918474
0.187725
0.122862
0.240918
-0.00390654
0.328312
-0.0101428
0.858306
-0.0174695
1.28039
-0.0261307
1.60318
-0.0365244
1.90177
-0.0486205
2.18666
-0.0633912
2.48166
-0.0812653
2.79916
-0.102456
3.12022
-0.126001
3.42225
-0.144466
3.08346
-0.149762
2.30147
-0.131156
1.69048
-0.0928215
1.18242
-0.025374
0.729574
0.0346977
0.382481
-0.0373152
0.23751
-0.351247
0.40578
-0.946346
0.717961
0.902849
-1.60828
-0.00381857
0.332131
-0.0103324
0.86482
-0.0175548
1.28762
-0.0258735
1.6115
-0.0359906
1.91189
-0.0481937
2.19886
-0.0634672
2.49693
-0.0823335
2.81803
-0.105338
3.14323
-0.131946
3.44886
-0.154295
3.10581
-0.164683
2.31186
-0.164479
1.69027
-0.131329
1.14927
-0.0920257
0.69027
-0.19775
0.488205
-0.693988
0.733748
-1.45771
1.1695
-2.06149
1.32174
1.21525
-2.3739
-0.00358814
0.335719
-0.00952651
0.870758
-0.0164776
1.29457
-0.0248259
1.61985
-0.0350427
1.92211
-0.0473813
2.2112
-0.0630257
2.51258
-0.082818
2.83782
-0.107802
3.16821
-0.138708
3.47976
-0.168826
3.13593
-0.18837
2.3314
-0.187798
1.6897
-0.163563
1.12503
-0.24974
0.776447
-0.752835
0.991301
-1.5638
1.54472
-2.11898
1.72467
-2.35571
1.55848
1.32854
-2.469
-0.00349605
0.339215
-0.00948914
0.876751
-0.0162664
1.30135
-0.0242347
1.62782
-0.0341131
1.93198
-0.0464763
2.22356
-0.0625229
2.52863
-0.0832153
2.85851
-0.109984
3.19498
-0.144254
3.51403
-0.179352
3.17103
-0.206182
2.35823
-0.225212
1.70873
-0.295423
1.19524
-0.670859
1.15188
-1.44953
1.76997
-2.0334
2.12858
-2.27141
1.96269
-2.38357
1.67063
1.39161
-2.44664
-0.00318393
0.342399
-0.00852514
0.882092
-0.0149258
1.30775
-0.0228332
1.63573
-0.0328074
1.94196
-0.0452561
2.23601
-0.0615478
2.54492
-0.0829892
2.87996
-0.111606
3.2236
-0.150242
3.55267
-0.194243
3.21503
-0.233878
2.39787
-0.267291
1.74215
-0.450446
1.3784
-1.09858
1.80002
-1.7963
2.46768
-2.1113
2.44359
-2.25799
2.10939
-2.33966
1.75229
1.45782
-2.40586
-0.00319502
0.345594
-0.00879878
0.887696
-0.0152722
1.31422
-0.0230549
1.64351
-0.0330529
1.95196
-0.0457654
2.24872
-0.0626543
2.56181
-0.085153
2.90245
-0.115632
3.25408
-0.157712
3.59475
-0.207334
3.26465
-0.249981
2.44052
-0.3339
1.82607
-0.735292
1.77979
-1.49501
2.55974
-1.96325
2.93592
-2.16273
2.64307
-2.26846
2.21512
-2.34573
1.82956
1.52086
-2.40877
-0.00324929
0.348843
-0.00870997
0.893157
-0.015428
1.32094
-0.0238426
1.65192
-0.034603
1.96272
-0.0480612
2.26218
-0.0657981
2.57954
-0.0895365
2.92619
-0.122198
3.28674
-0.168882
3.64143
-0.225189
3.32096
-0.284213
2.49954
-0.469395
2.01125
-1.04506
2.35546
-1.68125
3.19593
-1.95221
3.20688
-2.09833
2.78919
-2.21217
2.32897
-2.30591
1.92329
1.58236
-2.36741
-0.00339276
0.352236
-0.0096611
0.899425
-0.0169314
1.32821
-0.0255804
1.66057
-0.0365578
1.97369
-0.0505655
2.27619
-0.0692579
2.59824
-0.0944372
2.95137
-0.129188
3.32149
-0.17941
3.69165
-0.240271
3.38182
-0.32313
2.5824
-0.606987
2.2951
-1.26387
3.01234
-1.74979
3.68185
-1.95684
3.41392
-2.09584
2.9282
-2.21983
2.45296
-2.32992
2.03337
1.64105
-2.38861
-0.00332426
0.35556
-0.00928757
0.905389
-0.0168421
1.33576
-0.026325
1.67006
-0.038265
1.98563
-0.0531533
2.29108
-0.0727773
2.61786
-0.0992257
2.97782
-0.136129
3.35839
-0.190382
3.74591
-0.257895
3.44933
-0.380891
2.70539
-0.769788
2.684
-1.4096
3.65215
-1.75895
4.0312
-1.93129
3.58626
-2.03283
3.02973
-2.12154
2.54167
-2.18805
2.09988
1.63363
-2.18063
-0.00335378
0.358914
-0.0103419
0.912377
-0.0185988
1.34402
-0.0282819
1.67974
-0.0403793
1.99773
-0.0557876
2.30649
-0.0763923
2.63846
-0.104351
3.00578
-0.143303
3.39734
-0.19961
3.80221
-0.276054
3.52577
-0.445224
2.87457
-0.902308
3.14109
-1.4594
4.20924
-1.71952
4.29133
-1.87064
3.73737
-1.96435
3.12344
-1.96491
2.54223
-1.89478
2.02976
1.59548
-1.85664
-0.00313003
0.362044
-0.00948334
0.91873
-0.0178957
1.35243
-0.0284927
1.69034
-0.0416286
2.01087
-0.0578132
2.32267
-0.0789375
2.65959
-0.107283
3.03412
-0.146869
3.43693
-0.203635
3.85898
-0.288867
3.611
-0.49227
3.07797
-0.985556
3.63437
-1.42559
4.64928
-1.58984
4.45557
-1.6564
3.80394
-1.66078
3.12782
-1.51323
2.39468
-1.01418
1.53072
0.581298
-0.00274677
0.364791
-0.0104613
0.926444
-0.0197635
1.36173
-0.0305899
1.70116
-0.0440572
2.02433
-0.0612089
2.33982
-0.0841662
2.68255
-0.115417
3.06537
-0.159075
3.48059
-0.22171
3.92162
-0.323767
3.71306
-0.577821
3.33202
-1.1205
4.17705
-1.4773
5.00608
-1.57601
4.55428
-1.57415
3.80209
-1.47073
3.0244
-1.23219
2.15613
-0.629644
0.928172
-0.0483453
-0.00245568
0.367246
-0.00874185
0.932731
-0.0179714
1.37096
-0.0301006
1.71329
-0.0453405
2.03957
-0.0642895
2.35877
-0.0892614
2.70752
-0.123078
3.09919
-0.171112
3.52862
-0.241068
3.99157
-0.36369
3.83568
-0.67767
3.646
-1.23844
4.73782
-1.49691
5.26455
-1.55591
4.61328
-1.53374
3.77991
-1.33224
2.82289
-0.780304
1.6042
-0.108302
0.25617
-0.156647
-0.00148904
0.368735
-0.00937192
0.940614
-0.0195925
1.38118
-0.0317633
1.72546
-0.0469764
2.05479
-0.0666253
2.37842
-0.0933372
2.73423
-0.13023
3.13608
-0.182129
3.58052
-0.259137
4.06858
-0.40731
3.98386
-0.779775
4.01847
-1.31534
5.27339
-1.4913
5.44051
-1.52196
4.64394
-1.43421
3.69217
-1.0986
2.48728
-0.312241
0.81784
0.0247443
-0.0808154
-0.131903
-0.000960759
0.369696
-0.00615734
0.94581
-0.0157473
1.39077
-0.0293071
1.73902
-0.0464971
2.07198
-0.068152
2.40007
-0.0970032
2.76308
-0.136213
3.17529
-0.191279
3.63559
-0.277864
4.15516
-0.452328
4.15832
-0.89006
4.4562
-1.36035
5.74368
-1.47526
5.55542
-1.47855
4.64723
-1.25516
3.46877
-0.684793
1.91692
-0.0630536
0.196101
0.030008
-0.173877
-0.101895
0.000105866
0.36959
-0.00592516
0.951841
-0.0163413
1.40119
-0.0296855
1.75237
-0.0461534
2.08845
-0.068079
2.422
-0.0982099
2.79321
-0.139985
3.21707
-0.198131
3.69373
-0.293073
4.25011
-0.493845
4.35909
-0.981206
4.94356
-1.35395
6.11642
-1.4199
5.62137
-1.3737
4.60102
-1.08583
3.1809
-0.323228
1.15431
0.00340045
-0.130528
0.0141431
-0.18462
-0.0877515
0.0033036
0.366287
0.00101328
0.954131
-0.00898367
1.41119
-0.0236777
1.76706
-0.0420671
2.10683
-0.0661898
2.44612
-0.098334
2.82536
-0.141777
3.26051
-0.202825
3.75478
-0.306737
4.35402
-0.532787
4.58514
-1.04401
5.45478
-1.31968
6.39209
-1.3584
5.66009
-1.21996
4.46258
-0.770612
2.73156
-0.0699966
0.453699
0.0435693
-0.244094
0.0237231
-0.164773
-0.0640284
0.0042769
0.36201
0.00229883
0.95611
-0.00761889
1.4211
-0.0210806
1.78052
-0.0377923
2.12355
-0.0614844
2.46981
-0.0938869
2.85776
-0.139028
3.30565
-0.202542
3.8183
-0.313609
4.46508
-0.570506
4.84204
-1.06461
5.94889
-1.25325
6.58074
-1.26438
5.67122
-1.0465
4.2447
-0.460108
2.14517
-0.018365
0.0119565
-0.00668998
-0.255769
0.00478228
-0.176246
-0.0592461
0.00871689
0.353293
0.0106853
0.954141
0.00466019
1.42713
-0.00860796
1.79379
-0.0276521
2.14259
-0.0531597
2.49532
-0.0870046
2.8916
-0.132576
3.35123
-0.197789
3.88351
-0.315749
4.58304
-0.592392
5.11868
-1.04201
6.3985
-1.16748
6.70621
-1.1506
5.65434
-0.89156
3.98566
-0.265297
1.51891
-0.0706439
-0.182696
-0.0389497
-0.287463
-0.0144817
-0.200714
-0.0737278
0.0112966
0.341996
0.0158809
0.949557
0.0107806
1.43223
0.000712537
1.80386
-0.0168793
2.16018
-0.0401537
2.5186
-0.072454
2.9239
-0.118021
3.39679
-0.18374
3.94923
-0.30478
4.70408
-0.590863
5.40477
-0.977922
6.78556
-1.04017
6.76845
-0.973931
5.5881
-0.676527
3.68825
-0.0722836
0.914664
0.0138621
-0.268842
-0.00085528
-0.272745
-0.00213915
-0.19943
-0.075867
0.0185156
0.323481
0.0308365
0.937236
0.0309061
1.43216
0.0205358
1.81423
0.00303519
2.17768
-0.0202748
2.54191
-0.0528929
2.95652
-0.0972967
3.4412
-0.161522
4.01345
-0.282813
4.82538
-0.559571
5.68152
-0.865155
7.09115
-0.902987
6.80629
-0.798304
5.48342
-0.440975
3.33092
0.0686026
0.405086
0.0800093
-0.280249
0.0597738
-0.25251
0.0222035
-0.161859
-0.0536635
0.024247
0.299234
0.0423622
0.919121
0.0453691
1.42915
0.0389886
1.82061
0.0272507
2.18942
0.00688953
2.56227
-0.0218659
2.98528
-0.0630917
3.48242
-0.12424
4.0746
-0.238918
4.94005
-0.486923
5.92953
-0.708471
7.31269
-0.732431
6.83025
-0.634805
5.38579
-0.300226
2.99634
0.0108133
0.0940467
0.025708
-0.295143
0.0360439
-0.262846
0.0170633
-0.142879
-0.0366001
0.0351852
0.264049
0.0661074
0.888198
0.0787283
1.41653
0.0764051
1.82293
0.0656897
2.20014
0.0461077
2.58185
0.0184592
3.01293
-0.0199146
3.5208
-0.074864
4.12955
-0.174563
5.03975
-0.374141
6.12911
-0.528004
7.46656
-0.553534
6.85577
-0.458789
5.29105
-0.191794
2.72935
-0.075371
-0.0223765
-0.052287
-0.318227
-0.018571
-0.296562
0.000179021
-0.161629
-0.0364211
0.0446968
0.219352
0.0874166
0.845479
0.10769
1.39626
0.112596
1.81803
0.10915
2.20358
0.0961604
2.59484
0.0761667
3.03292
0.0448777
3.55209
-0.00623678
4.18067
-0.0801805
5.1137
-0.217895
6.26682
-0.307266
7.55593
-0.317316
6.86582
-0.260529
5.23426
-0.10731
2.57613
-0.114681
-0.0150063
-0.0929143
-0.339994
-0.0569103
-0.332566
-0.0157293
-0.20281
-0.0521505
0.0580103
0.161342
0.121589
0.7819
0.160259
1.35759
0.174205
1.80408
0.174727
2.20306
0.164281
2.60529
0.148392
3.04881
0.125146
3.57533
0.0900861
4.21573
0.040746
5.16304
-0.0122587
6.31983
-0.042375
7.58604
-0.0410749
6.86452
-0.00345752
5.19664
0.0346265
2.53805
-0.122901
0.142521
-0.12747
-0.335424
-0.0816232
-0.378413
-0.0139296
-0.270503
-0.0660801
0.0597148
0.101627
0.15125
0.690365
0.208651
1.30019
0.236383
1.77635
0.24865
2.19079
0.249016
2.60492
0.243476
3.05435
0.231795
3.58701
0.212545
4.23497
0.190677
5.1849
0.231882
6.27862
0.287008
7.53092
0.323996
6.82754
0.291368
5.22927
0.130718
2.6987
-0.132439
0.405678
-0.206202
-0.26166
-0.143378
-0.441237
-0.0374303
-0.376451
-0.10351
0.0488898
0.052737
0.184763
0.554492
0.28309
1.20186
0.331748
1.72769
0.352688
2.16985
0.3604
2.59721
0.358444
3.0563
0.359237
3.58622
0.361049
4.23316
0.373215
5.17274
0.522374
6.12946
0.66031
7.39298
0.666708
6.82114
0.451381
5.4446
-0.0393438
3.18942
-0.403906
0.77024
-0.460171
-0.205396
-0.360755
-0.540653
-0.179327
-0.55788
-0.282837
0.0341199
0.0186171
0.218949
0.369663
0.348524
1.07229
0.427771
1.64844
0.469796
2.12783
0.494847
2.57216
0.504543
3.04661
0.518175
3.57259
0.540553
4.21078
0.592122
5.12117
0.807655
5.91393
1.12704
7.0736
1.25305
6.69513
1.24786
5.44979
0.746848
3.69043
0.0162116
1.50088
-0.403444
0.21426
-0.497102
-0.446995
-0.277195
-0.777787
-0.560033
0.0303229
-0.0117058
0.232866
0.167119
0.451735
0.853417
0.572365
1.52781
0.627533
2.07266
0.658806
2.54089
0.678357
3.02706
0.702124
3.54882
0.748842
4.16407
0.846328
5.02368
1.1699
5.59035
1.73702
6.50648
2.07096
6.36119
2.32208
5.19867
2.22529
3.78722
1.44622
2.27995
0.717836
0.942647
0.205339
0.0655026
-0.0210398
-0.551408
-0.581072
0.0226895
-0.0343953
0.154278
0.0355311
0.493785
0.51391
0.694872
1.32673
0.801598
1.96593
0.857358
2.48512
0.894773
2.98964
0.919252
3.52434
0.980963
4.10235
1.10576
4.89889
1.47738
5.21873
2.239
5.74487
2.62088
5.97931
2.80014
5.01942
2.65556
3.9318
2.15492
2.78059
1.50104
1.59652
0.928163
0.638384
0.350843
0.0259114
-0.230229
0.00153343
-0.0359287
0.0754278
-0.0383633
0.407478
0.18186
0.722468
1.01174
0.869668
1.81873
0.907883
2.44691
0.916141
2.98139
0.900506
3.53998
0.898562
4.1043
0.93329
4.86416
1.0952
5.05682
1.53855
5.30152
1.71432
5.80353
1.75936
4.97438
1.67132
4.01985
1.41355
3.03836
1.00312
2.00694
0.584704
1.0568
0.248212
0.362403
0.0179834
0.00414666
-0.0400754
0.0420183
-0.0762349
0.202185
0.0216933
0.54935
0.66457
0.735564
1.63252
0.803734
2.37874
0.816896
2.96822
0.81021
3.54666
0.792977
4.12153
0.811974
4.84516
0.89485
4.97394
1.20625
4.99013
1.3875
5.62228
1.40512
4.95675
1.34896
4.07601
1.18448
3.20284
0.894649
2.29678
0.564672
1.38678
0.234148
0.692927
0.252131
-0.000544377
-0.039531
0.00907719
-0.0858565
0.07602
-0.0452495
0.376431
0.36416
0.592909
1.41604
0.69439
2.27726
0.718155
2.94446
0.716338
3.54848
0.687516
4.15035
0.682625
4.85005
0.713071
4.9435
0.903636
4.79956
1.07671
5.44921
1.07844
4.95502
1.02506
4.12938
0.901178
3.32672
0.691496
2.50646
0.429327
1.64895
0.174971
0.947283
0.427102
-0.00538755
-0.0341435
-0.00458005
-0.086664
0.029423
-0.0792525
0.239264
0.154318
0.47112
1.18419
0.573713
2.17467
0.602295
2.91588
0.605758
3.54502
0.577337
4.17878
0.552465
4.87492
0.555926
4.94003
0.664745
4.69074
0.805259
5.30869
0.795371
4.96491
0.738393
4.18636
0.642119
3.423
0.493711
2.65487
0.303083
1.83958
0.116497
1.13387
0.543599
0.000953589
-0.035097
0.0123765