/*--------------------------------*- C++ -*----------------------------------*\
| =========                 |                                                 |
| \\      /  F ield         | OpenFOAM: The Open Source CFD Toolbox           |
|  \\    /   O peration     | Version:  v2012                                 |
|   \\  /    A nd           | Website:  www.openfoam.com                      |
|    \\/     M anipulation  |                                                 |
\*---------------------------------------------------------------------------*/
FoamFile
{
    version     2.0;
    format      ascii;
    class       volScalarField;
    location    "64";
    object      p;
}
// * * * * * * * * * * * * * * * * * * * * * * * * * * * * * * * * * * * * * //

dimensions      [0 2 -2 0 0 0 0];


internalField   nonuniform List<scalar> 
2200
(
0.770983
0.749485
0.73358
0.717915
0.703309
0.690798
0.680455
0.672367
0.666685
0.663762
0.66429
0.668129
0.674481
0.683052
0.69374
0.706519
0.721316
0.737252
0.7533
0.774797
0.703401
0.700144
0.697221
0.693107
0.687651
0.681185
0.674577
0.668639
0.664155
0.661803
0.662304
0.665657
0.670862
0.677342
0.68434
0.691101
0.696766
0.700858
0.703705
0.707069
0.663462
0.663683
0.665746
0.667096
0.667492
0.666648
0.664681
0.66202
0.6595
0.658042
0.658624
0.661105
0.664422
0.667669
0.670018
0.671023
0.670761
0.66977
0.668134
0.667886
0.640963
0.642415
0.645015
0.647472
0.649921
0.651951
0.65312
0.653373
0.65303
0.652776
0.653463
0.654877
0.656101
0.656514
0.655845
0.654179
0.652025
0.649847
0.64724
0.645835
0.626594
0.628567
0.631388
0.63423
0.637098
0.639941
0.642415
0.644296
0.645553
0.646399
0.647181
0.647697
0.647492
0.646415
0.644579
0.642222
0.639679
0.636951
0.634155
0.632233
0.619212
0.62081
0.623018
0.625557
0.628237
0.630922
0.633537
0.635986
0.638041
0.6396
0.640521
0.640592
0.639802
0.638317
0.636449
0.634331
0.632021
0.629684
0.627586
0.626012
0.615753
0.616775
0.61805
0.619924
0.622081
0.624265
0.626484
0.628812
0.631076
0.632974
0.634072
0.634153
0.63343
0.632268
0.630902
0.629366
0.627683
0.626116
0.625007
0.62399
0.613055
0.613724
0.614361
0.615673
0.617302
0.619012
0.620795
0.622758
0.62488
0.626925
0.628241
0.628623
0.628356
0.627777
0.627037
0.62612
0.625086
0.624175
0.623733
0.623056
0.609756
0.610201
0.610602
0.611609
0.612886
0.614292
0.615823
0.617538
0.619452
0.621503
0.623116
0.623979
0.624313
0.624318
0.624079
0.623642
0.623091
0.622576
0.622395
0.62193
0.605643
0.60594
0.606301
0.60718
0.608306
0.609601
0.611068
0.612725
0.614605
0.616727
0.618704
0.620132
0.62099
0.621431
0.621565
0.621469
0.621202
0.620896
0.620778
0.620453
0.600849
0.601049
0.601425
0.602266
0.603379
0.604715
0.606279
0.608075
0.610118
0.612472
0.614876
0.616812
0.618124
0.618923
0.619329
0.619465
0.619386
0.619236
0.61914
0.6189
0.59557
0.595715
0.596089
0.596908
0.598067
0.599523
0.601272
0.603317
0.60569
0.608464
0.611417
0.613878
0.6156
0.616707
0.617359
0.617686
0.617814
0.617809
0.617747
0.617554
0.589853
0.589964
0.590347
0.591176
0.592414
0.594031
0.596021
0.59841
0.601264
0.604627
0.608211
0.611246
0.613404
0.614849
0.615781
0.616353
0.616693
0.616826
0.616809
0.616638
0.583703
0.583769
0.584155
0.585017
0.586374
0.588185
0.590458
0.593248
0.596668
0.600795
0.60517
0.608854
0.611518
0.6134
0.614714
0.615592
0.616177
0.616459
0.616481
0.616318
0.577025
0.577062
0.577489
0.578409
0.579921
0.581959
0.584543
0.587802
0.591885
0.596862
0.602173
0.606695
0.610028
0.612464
0.614245
0.615505
0.616348
0.616782
0.616852
0.616689
0.569741
0.569706
0.570136
0.571149
0.572858
0.575141
0.578085
0.581873
0.586711
0.592694
0.599168
0.604736
0.608941
0.612083
0.614439
0.61614
0.61728
0.61788
0.618001
0.617832
0.561488
0.561481
0.561925
0.563037
0.565011
0.567631
0.571064
0.575533
0.581299
0.588519
0.596335
0.603121
0.608371
0.61234
0.615352
0.617557
0.619039
0.619815
0.619993
0.619813
0.552155
0.552174
0.552631
0.553895
0.556164
0.559227
0.56329
0.568594
0.575448
0.584099
0.593597
0.601908
0.608352
0.613318
0.617092
0.619851
0.621732
0.622696
0.622925
0.622726
0.541311
0.541284
0.541845
0.543328
0.54596
0.5496
0.554482
0.56087
0.569136
0.57957
0.591059
0.601116
0.608986
0.61506
0.619662
0.623101
0.625414
0.626564
0.626842
0.62662
0.528433
0.528365
0.529042
0.530895
0.534103
0.538545
0.544509
0.552316
0.562401
0.575068
0.588856
0.600963
0.61038
0.617674
0.623256
0.627405
0.630194
0.631538
0.631848
0.631596
0.513258
0.513158
0.51393
0.516135
0.520065
0.525581
0.533002
0.542697
0.555124
0.570521
0.587053
0.601364
0.612513
0.62117
0.627808
0.632804
0.636093
0.637609
0.637939
0.637655
0.494688
0.494607
0.495631
0.498428
0.503378
0.510374
0.519784
0.532
0.547428
0.566078
0.585728
0.602555
0.615622
0.625718
0.633531
0.639362
0.643128
0.644801
0.645121
0.644805
0.471847
0.471696
0.47301
0.476623
0.483073
0.492217
0.504357
0.519849
0.538935
0.56148
0.584697
0.604379
0.619496
0.63121
0.640263
0.647004
0.651243
0.653025
0.653294
0.65295
0.442393
0.442424
0.444525
0.449589
0.458332
0.47061
0.486595
0.506403
0.530004
0.557073
0.584291
0.60694
0.62427
0.637673
0.648047
0.655666
0.660256
0.662101
0.66229
0.661922
0.403462
0.403706
0.407261
0.415282
0.428116
0.445402
0.466718
0.491932
0.520858
0.553032
0.584604
0.61049
0.630122
0.645214
0.656816
0.665182
0.669997
0.671765
0.671843
0.67147
0.351779
0.352207
0.359244
0.372537
0.391858
0.41636
0.444711
0.476573
0.511699
0.549576
0.585764
0.614877
0.63678
0.653597
0.666428
0.675363
0.680032
0.681441
0.681365
0.681059
0.283991
0.286755
0.301929
0.323528
0.351765
0.385174
0.421691
0.461049
0.503103
0.547283
0.588592
0.621402
0.646142
0.664983
0.679121
0.688573
0.692954
0.693815
0.693728
0.693525
0.206885
0.21653
0.241893
0.273263
0.311695
0.354273
0.399062
0.446174
0.495508
0.54641
0.593333
0.630561
0.658284
0.67931
0.695015
0.704867
0.708857
0.70922
0.709246
0.709141
0.138196
0.152887
0.184603
0.225023
0.273146
0.324619
0.377528
0.43236
0.488934
0.546613
0.59922
0.640351
0.670874
0.693989
0.710735
0.720767
0.724508
0.724592
0.724716
0.724692
0.0859023
0.0992293
0.13592
0.182468
0.238028
0.297098
0.357429
0.419569
0.483108
0.547123
0.604926
0.64989
0.683374
0.708294
0.726266
0.736845
0.740324
0.740681
0.740955
0.740927
0.0426121
0.0551963
0.0957602
0.146238
0.207254
0.272304
0.339105
0.407728
0.47747
0.547301
0.610229
0.659219
0.695242
0.722078
0.741371
0.752374
0.756575
0.7573
0.757327
0.757389
0.00579586
0.0185346
0.0617672
0.115103
0.180492
0.250413
0.322638
0.396803
0.472174
0.547858
0.616058
0.668502
0.706847
0.735324
0.755975
0.767666
0.77208
0.772881
0.772924
0.772989
-0.0263408
-0.0133873
0.0320455
0.0879866
0.156999
0.23089
0.307731
0.386891
0.467625
0.548795
0.621465
0.67695
0.717695
0.747752
0.76957
0.78163
0.786429
0.787312
0.787392
0.787438
-0.0547398
-0.0418491
0.00525499
0.0636312
0.135836
0.213247
0.294221
0.377872
0.463355
0.549164
0.625883
0.684751
0.727639
0.75889
0.781447
0.794223
0.799242
0.800285
0.800368
0.800404
-0.0806703
-0.0677687
-0.0193502
0.0413908
0.116437
0.196955
0.281566
0.369078
0.458668
0.54885
0.629844
0.691822
0.736454
0.769053
0.791973
0.805206
0.810603
0.811752
0.811869
0.811882
-0.104604
-0.0915317
-0.0423654
0.0206438
0.0982003
0.181503
0.269274
0.360142
0.453513
0.548043
0.633198
0.698004
0.744438
0.777991
0.801321
0.815087
0.820562
0.821843
0.821954
0.821942
-0.127174
-0.113782
-0.063927
0.00107603
0.0807617
0.166488
0.257029
0.350955
0.447898
0.546466
0.635591
0.703412
0.751718
0.786333
0.809929
0.823715
0.829369
0.830661
0.830772
0.830731
-0.148423
-0.134846
-0.0843378
-0.0176923
0.0637837
0.151689
0.244755
0.34151
0.441748
0.544069
0.637233
0.708269
0.758523
0.793975
0.817889
0.831511
0.837015
0.838341
0.838432
0.838349
-0.168588
-0.154989
-0.103794
-0.0357927
0.0472057
0.137056
0.232412
0.331762
0.435011
0.540859
0.638034
0.712481
0.764912
0.801576
0.82544
0.838464
0.843856
0.845041
0.845047
0.844949
-0.188047
-0.174166
-0.122483
-0.0533573
0.0309621
0.122555
0.219974
0.321645
0.427578
0.536716
0.637955
0.716111
0.771281
0.809073
0.8328
0.845249
0.849896
0.850875
0.85086
0.850779
-0.207172
-0.192661
-0.140544
-0.0704091
0.0150726
0.108182
0.207387
0.311091
0.419453
0.531751
0.637035
0.719124
0.777529
0.817144
0.840694
0.85194
0.85561
0.855983
0.85602
0.856011
-0.225845
-0.210597
-0.158083
-0.0870167
-0.000516546
0.0938923
0.194628
0.300131
0.41073
0.525971
0.635064
0.721444
0.783654
0.825723
0.849635
0.859658
0.861231
0.860704
0.86057
0.860415
-0.244062
-0.228145
-0.175164
-0.103201
-0.015809
0.0796995
0.181731
0.288831
0.401486
0.519388
0.632043
0.72294
0.789421
0.835098
0.860467
0.868919
0.867781
0.865912
0.86565
0.866629
-0.26164
-0.245233
-0.191774
-0.118982
-0.0308126
0.0656277
0.168768
0.277288
0.391791
0.512024
0.627873
0.723326
0.794781
0.845035
0.873429
0.8815
0.877635
0.870724
0.865912
0.86498
-0.278641
-0.261851
-0.20788
-0.134325
-0.0454745
0.0517585
0.155837
0.265575
0.381668
0.503913
0.622573
0.722347
0.799031
0.855279
0.888652
0.898485
0.89452
0.88372
0.883831
0.887982
-0.294992
-0.277864
-0.223412
-0.149185
-0.0597401
0.0381624
0.143017
0.253761
0.371185
0.49516
0.616146
0.71967
0.801865
0.864752
0.905066
0.920055
0.916207
0.886916
0.84901
0.816007
-0.310703
-0.293318
-0.238396
-0.163604
-0.0736786
0.0247434
0.130176
0.241673
0.360125
0.485509
0.608368
0.714988
0.802144
0.872575
0.922076
0.945271
0.955158
0.929888
0.94738
1.00905
-0.325687
-0.308191
-0.252901
-0.177719
-0.0874699
0.0112717
0.117031
0.22897
0.348064
0.474413
0.598608
0.707419
0.798797
0.875691
0.931428
0.959489
0.961224
0.933473
0.889469
0.906497
-0.339955
-0.322511
-0.266897
-0.191468
-0.101035
-0.0021596
0.103698
0.215786
0.335121
0.461894
0.586822
0.6968
0.789683
0.869508
0.926713
0.955277
0.935391
0.87666
0.81066
0.797687
-0.353464
-0.336216
-0.280367
-0.204865
-0.114387
-0.0155609
0.0901816
0.202137
0.321313
0.447957
0.572869
0.682577
0.774409
0.850566
0.902683
0.904748
0.865336
0.784472
0.707983
0.682821
-0.366273
-0.349356
-0.293349
-0.217927
-0.127547
-0.0289451
0.0764852
0.188042
0.306672
0.432628
0.556668
0.664624
0.751583
0.816166
0.843544
0.826864
0.763159
0.658826
0.569696
0.545629
-0.378807
-0.362266
-0.306203
-0.231024
-0.14087
-0.0426213
0.0623425
0.173274
0.291024
0.415734
0.537932
0.642192
0.721912
0.77033
0.763837
0.726071
0.610202
0.485151
0.375958
0.347108
-0.391937
-0.375801
-0.319644
-0.244748
-0.154893
-0.0570512
0.0473585
0.15751
0.274115
0.397069
0.516423
0.61504
0.687443
0.710526
0.676366
0.584777
0.426013
0.271232
0.140097
0.111023
-0.406157
-0.390234
-0.33393
-0.259342
-0.169804
-0.0723636
0.0314502
0.140706
0.255945
0.376644
0.492081
0.583973
0.645557
0.639529
0.586824
0.434027
0.232616
0.0187116
-0.162366
-0.212144
-0.421615
-0.405808
-0.349184
-0.274804
-0.18556
-0.0885221
0.014648
0.122902
0.236562
0.354538
0.464867
0.550402
0.596685
0.558854
0.47063
0.281265
0.0496148
-0.239487
-0.560348
-0.709711
-0.438357
-0.422448
-0.365453
-0.291257
-0.20225
-0.105601
-0.00312003
0.104025
0.215917
0.330788
0.435191
0.513955
0.541941
0.473774
0.336022
0.130262
-0.10327
-0.446593
-1.03133
-1.60207
-0.456505
-0.440444
-0.382897
-0.308732
-0.219874
-0.123596
-0.0218249
0.0841586
0.194171
0.305776
0.404136
0.474593
0.483376
0.39904
0.206622
-0.0265514
-0.228549
-0.462101
-1.01361
-2.51699
-0.476049
-0.459644
-0.401523
-0.3274
-0.238627
-0.142711
-0.0417069
0.0630115
0.17099
0.279132
0.371395
0.431905
0.419894
0.340383
0.11333
-0.123661
-0.271089
-0.307911
-0.296476
-0.681336
-0.496952
-0.480472
-0.421629
-0.347511
-0.258876
-0.163446
-0.0633912
0.0398329
0.145445
0.249527
0.336048
0.385885
0.357682
0.290132
0.063792
-0.137564
-0.247951
-0.255841
-0.202756
-0.242731
-0.519074
-0.502476
-0.443061
-0.369185
-0.280749
-0.185931
-0.0870389
0.0144208
0.117309
0.216806
0.298146
0.337934
0.303107
0.235877
0.0315957
-0.127886
-0.209994
-0.218047
-0.265904
-0.269865
-0.542385
-0.525938
-0.465921
-0.392356
-0.304203
-0.210201
-0.112707
-0.01326
0.0865808
0.181373
0.257649
0.287794
0.255691
0.17473
0.00343477
-0.11857
-0.188547
-0.165819
-0.186146
-0.187781
-0.56658
-0.549878
-0.489849
-0.416998
-0.329138
-0.236171
-0.140312
-0.0431327
0.0533662
0.143537
0.214758
0.234288
0.214651
0.106797
-0.0319291
-0.11378
-0.152325
-0.200791
-0.174917
-0.183557
-0.591613
-0.57451
-0.514927
-0.442855
-0.355279
-0.263716
-0.169702
-0.0749577
0.0178344
0.103655
0.170586
0.179613
0.171658
0.04611
-0.0686465
-0.132205
-0.109154
-0.169006
-0.149769
-0.154726
-0.616281
-0.598965
-0.540808
-0.469663
-0.382348
-0.292576
-0.200569
-0.10844
-0.0198386
0.0620286
0.126169
0.127606
0.119842
-0.00497819
-0.0954107
-0.146272
-0.134505
-0.149544
-0.154955
-0.153152
-0.640394
-0.623219
-0.567005
-0.496646
-0.409937
-0.322448
-0.232557
-0.143167
-0.0590909
0.0190844
0.0819036
0.0796741
0.0623201
-0.0474182
-0.108689
-0.139783
-0.178966
-0.150226
-0.156038
-0.150408
-0.662712
-0.646273
-0.592112
-0.522986
-0.437823
-0.352747
-0.265111
-0.178635
-0.0991063
-0.0249003
0.0375012
0.0361313
0.00671481
-0.0825093
-0.122198
-0.114615
-0.187745
-0.130636
-0.14572
-0.137962
-0.682818
-0.667487
-0.615416
-0.547533
-0.465481
-0.382745
-0.2976
-0.214219
-0.138863
-0.0693733
-0.00741033
-0.00427591
-0.0386106
-0.10155
-0.12992
-0.0893445
-0.134555
-0.117451
-0.123584
-0.120459
-0.698896
-0.685193
-0.635761
-0.570022
-0.49187
-0.411463
-0.329235
-0.249187
-0.177509
-0.11361
-0.052823
-0.0421404
-0.0702706
-0.102763
-0.120387
-0.0972325
-0.111423
-0.115185
-0.116181
-0.116398
-0.710277
-0.69873
-0.65262
-0.589424
-0.515269
-0.437916
-0.358985
-0.28258
-0.21419
-0.156303
-0.0971984
-0.0775251
-0.0938481
-0.098869
-0.111186
-0.123537
-0.115246
-0.119094
-0.117238
-0.118161
-0.71542
-0.706302
-0.664384
-0.604768
-0.534678
-0.461009
-0.38598
-0.313483
-0.248213
-0.195883
-0.138279
-0.111797
-0.122919
-0.099816
-0.104661
-0.141184
-0.118435
-0.125995
-0.119251
-0.120974
-0.714501
-0.707516
-0.669964
-0.614228
-0.548498
-0.479344
-0.408751
-0.340432
-0.278592
-0.23028
-0.174649
-0.145188
-0.147427
-0.116981
-0.0952878
-0.11698
-0.106231
-0.126537
-0.123977
-0.127123
-0.706532
-0.699232
-0.666742
-0.616757
-0.556391
-0.492203
-0.426489
-0.362294
-0.30376
-0.258089
-0.205303
-0.175735
-0.165342
-0.124841
-0.0703031
-0.0671159
-0.0836809
-0.0985236
-0.104164
-0.106895
-0.68595
-0.677567
-0.653248
-0.610637
-0.556583
-0.498125
-0.437652
-0.37725
-0.321399
-0.277008
-0.22745
-0.200271
-0.196031
-0.231545
-0.292955
-0.361272
-0.370984
-0.349299
-0.327433
-0.310033
-0.643232
-0.635297
-0.626647
-0.596363
-0.550598
-0.498266
-0.442638
-0.384976
-0.329753
-0.284732
-0.236299
-0.202714
-0.276884
-0.408555
-0.635567
-0.79616
-0.807812
-0.783695
-0.734599
-0.684522
-0.602209
-0.599341
-0.598318
-0.574889
-0.538337
-0.492589
-0.440803
-0.384684
-0.327354
-0.27787
-0.229007
-0.162185
-0.176849
-0.249587
-0.359791
-0.384757
-0.314781
-0.248725
-0.186169
-0.143123
-0.579535
-0.581224
-0.571074
-0.556938
-0.527682
-0.485803
-0.435263
-0.378903
-0.315655
-0.252543
-0.192943
-0.0749748
0.0733057
0.300051
0.519214
0.717539
0.865002
0.952949
0.995408
1.03532
-0.548268
-0.547963
-0.54471
-0.5433
-0.518485
-0.479127
-0.428411
-0.369523
-0.300055
-0.219728
-0.135361
0.000893001
0.219283
0.546647
0.869924
1.13734
1.32309
1.43569
1.4921
1.51001
-0.536108
-0.53422
-0.536949
-0.530183
-0.512621
-0.475842
-0.423258
-0.359998
-0.285277
-0.193094
-0.0910968
0.0362535
0.272381
0.593492
0.911093
1.17952
1.37707
1.49526
1.54751
1.56295
-0.524374
-0.523093
-0.526375
-0.519154
-0.511383
-0.474354
-0.420717
-0.354587
-0.275673
-0.177638
-0.069458
0.0349586
0.253969
0.53112
0.804635
1.04158
1.22548
1.33595
1.38437
1.39789
-0.512162
-0.512285
-0.51304
-0.512476
-0.509214
-0.471769
-0.41906
-0.352602
-0.272794
-0.175099
-0.0702256
0.0103589
0.193673
0.427417
0.649621
0.840957
0.993888
1.08655
1.12665
1.13673
-0.499768
-0.500394
-0.498702
-0.501268
-0.496773
-0.470327
-0.421847
-0.355033
-0.276121
-0.183209
-0.084222
-0.0213695
0.121863
0.316706
0.493528
0.640072
0.757254
0.829441
0.860128
0.86785
-0.490657
-0.489597
-0.484707
-0.483628
-0.477453
-0.466147
-0.424896
-0.358954
-0.282666
-0.197298
-0.103929
-0.0513582
0.0535054
0.212866
0.351917
0.462023
0.548603
0.602808
0.625077
0.629586
-0.502129
-0.498751
-0.493546
-0.490482
-0.487566
-0.480322
-0.429351
-0.361488
-0.287071
-0.210755
-0.123534
-0.0761041
-0.00496117
0.123025
0.231437
0.313616
0.376642
0.416597
0.431893
0.436827
-0.537769
-0.536739
-0.53805
-0.544573
-0.543238
-0.515907
-0.441356
-0.364495
-0.287804
-0.219302
-0.139588
-0.0947571
-0.0491576
0.05135
0.133946
0.19493
0.242333
0.272878
0.28419
0.28778
-0.579701
-0.584193
-0.596326
-0.605494
-0.597515
-0.543319
-0.44897
-0.363959
-0.283042
-0.220694
-0.14976
-0.107619
-0.0773271
0.00136827
0.0623063
0.106418
0.142696
0.165396
0.17463
0.177117
-0.542167
-0.546759
-0.560579
-0.57349
-0.566124
-0.510124
-0.42648
-0.345075
-0.268698
-0.212006
-0.152075
-0.114443
-0.0914951
-0.0301667
0.0136349
0.0451154
0.0699169
0.0848065
0.091367
0.0930261
-0.399703
-0.407308
-0.419223
-0.427331
-0.424305
-0.394276
-0.346729
-0.294249
-0.237659
-0.190541
-0.146086
-0.114911
-0.0947769
-0.0492365
-0.0183668
0.00302245
0.0183579
0.0270087
0.0301432
0.0302424
-0.232081
-0.235668
-0.241025
-0.248651
-0.25258
-0.24757
-0.234842
-0.216049
-0.187407
-0.15883
-0.131206
-0.109058
-0.0910217
-0.0600221
-0.0395726
-0.0260871
-0.0174352
-0.0136813
-0.0131869
-0.0140187
-0.0921139
-0.0939892
-0.0980439
-0.105568
-0.115163
-0.124667
-0.132737
-0.136782
-0.131157
-0.122311
-0.109053
-0.0962181
-0.0829494
-0.0642838
-0.0521931
-0.044708
-0.0410131
-0.0405006
-0.0417405
-0.0430127
0.000972193
-6.49294e-05
-0.00274627
-0.0105032
-0.024405
-0.0417938
-0.0589672
-0.0735693
-0.0813604
-0.0865031
-0.0833016
-0.0778818
-0.072096
-0.0625301
-0.0570155
-0.0548391
-0.0548593
-0.0564243
-0.0584145
-0.0597846
0.0495507
0.0486745
0.0464742
0.0391299
0.0244063
0.0046687
-0.0151263
-0.0328116
-0.0455081
-0.0567006
-0.0592772
-0.0589387
-0.0595918
-0.0566667
-0.0562541
-0.0577992
-0.0602929
-0.0631777
-0.065366
-0.0666764
0.0681757
0.0675711
0.0657827
0.0594896
0.0464184
0.0280545
0.00869696
-0.00950069
-0.0236064
-0.0359542
-0.0403174
-0.0436732
-0.0476359
-0.0486572
-0.0518557
-0.0557317
-0.0594077
-0.0626499
-0.0647155
-0.0659089
0.0701849
0.0697467
0.068359
0.0634578
0.053132
0.0380658
0.021115
0.00382255
-0.0103012
-0.022648
-0.027361
-0.0322112
-0.0371712
-0.0406847
-0.0454531
-0.0501722
-0.0540843
-0.0570864
-0.0588343
-0.0598839
0.0644243
0.0641265
0.0630936
0.0594666
0.0517642
0.0403096
0.0267332
0.0117232
-0.00122608
-0.0134459
-0.0185897
-0.0233044
-0.0284489
-0.0329361
-0.0381903
-0.042862
-0.0464671
-0.0490466
-0.0503764
-0.0512731
0.0555099
0.0553256
0.0545876
0.0520089
0.0464576
0.0380307
0.0277456
0.0157536
0.0051308
-0.00634104
-0.011913
-0.0163118
-0.0211469
-0.025485
-0.0305127
-0.034746
-0.0379175
-0.0401265
-0.0410598
-0.0417979
0.0458918
0.0457883
0.0452658
0.043479
0.0395929
0.0335486
0.0259477
0.0167254
0.00871726
-0.00116765
-0.00652078
-0.010235
-0.0145217
-0.0186068
-0.0231598
-0.0268323
-0.0295387
-0.0313837
-0.0320434
-0.0326588
0.0367029
0.0366631
0.0363112
0.035129
0.0324659
0.0282315
0.022747
0.0157658
0.0100034
0.00211562
-0.0022945
-0.00532909
-0.00894765
-0.0125973
-0.0165939
-0.0197236
-0.0219731
-0.0235015
-0.0239691
-0.0244841
0.0283132
0.0282975
0.028067
0.0273086
0.0255213
0.0225945
0.0187288
0.0135388
0.00963363
0.00368502
0.000661719
-0.0017269
-0.00485486
-0.00798803
-0.0113193
-0.013895
-0.0157463
-0.017023
-0.0174115
-0.0178273
0.0207415
0.020739
0.0205691
0.0201017
0.0189418
0.0170009
0.0143811
0.0105679
0.00809112
0.00376685
0.00202586
0.00056
-0.00200489
-0.00459439
-0.00732468
-0.00939442
-0.0108382
-0.0117866
-0.0120268
-0.0123623
0.014018
0.0140126
0.0139138
0.0136586
0.0129721
0.011795
0.0102243
0.00757752
0.00617709
0.00303646
0.00210395
0.00138558
-0.000497285
-0.00236739
-0.00449069
-0.0059421
-0.00687007
-0.00744701
-0.0076366
-0.00795551
0.00795894
0.00795101
0.00792598
0.00785103
0.00753856
0.0069251
0.0062088
0.00455979
0.00398619
0.00188694
0.00138078
0.00125492
-1.364e-05
-0.000951962
-0.0024735
-0.00336486
-0.00383476
-0.00417625
-0.00417348
-0.00438454
0.00258305
0.00260425
0.00264118
0.00267963
0.00263349
0.00240237
0.00224808
0.0014483
0.00147166
0.000539456
0.000487763
0.000822448
8.81569e-05
1.88524e-05
-0.0010389
-0.0016777
-0.0022376
-0.00272325
-0.00247818
-0.00246079
-1.07589
-0.239847
0.0300735
0.304876
0.484431
0.637983
0.760624
0.885864
1.02503
1.10958
-0.0995144
0.30531
0.320054
0.50716
0.628772
0.737876
0.831432
0.915045
0.941905
0.900482
0.273867
0.486274
0.519654
0.655271
0.73946
0.817836
0.882531
0.931163
0.932942
0.947388
0.500924
0.642321
0.676789
0.777082
0.833526
0.89002
0.934291
0.966342
0.975257
0.999064
0.676953
0.777107
0.806779
0.873162
0.917483
0.957739
0.989538
1.01368
1.02335
1.05503
0.818912
0.886993
0.917153
0.959425
0.995218
1.02501
1.0491
1.06981
1.08383
1.1122
0.937219
0.987377
1.01278
1.04047
1.06788
1.09149
1.11134
1.13057
1.1454
1.17196
1.04046
1.07726
1.09821
1.11872
1.13936
1.15866
1.17603
1.19412
1.20899
1.23267
1.13413
1.16314
1.1794
1.1946
1.21064
1.22666
1.24219
1.25909
1.27271
1.29504
1.22223
1.24264
1.25745
1.27058
1.28413
1.29788
1.31138
1.32597
1.33751
1.35715
1.30758
1.32335
1.33716
1.34896
1.36087
1.37251
1.38364
1.39532
1.40299
1.41979
1.39279
1.40533
1.41903
1.43078
1.44142
1.45121
1.46003
1.46829
1.47185
1.48308
1.48153
1.49235
1.50583
1.51535
1.52291
1.53021
1.53739
1.54386
1.54496
1.55232
1.57993
1.58454
1.59273
1.59747
1.60086
1.60534
1.61133
1.61899
1.6229
1.63277
1.69322
1.68011
1.67282
1.66711
1.66438
1.66572
1.67205
1.68441
1.69924
1.72891
1.81519
1.75915
1.72813
1.71094
1.70272
1.70265
1.7115
1.73112
1.76291
1.83218
)
;

boundaryField
{
    wall-4
    {
        type            zeroGradient;
    }
    pressure-outlet-7
    {
        type            fixedValue;
        value           uniform 0;
    }
    velocity-inlet-6
    {
        type            zeroGradient;
    }
    velocity-inlet-5
    {
        type            zeroGradient;
    }
    frontAndBackPlanes
    {
        type            empty;
    }
}


// ************************************************************************* //
