/*--------------------------------*- C++ -*----------------------------------*\
| =========                 |                                                 |
| \\      /  F ield         | OpenFOAM: The Open Source CFD Toolbox           |
|  \\    /   O peration     | Version:  v2012                                 |
|   \\  /    A nd           | Website:  www.openfoam.com                      |
|    \\/     M anipulation  |                                                 |
\*---------------------------------------------------------------------------*/
FoamFile
{
    version     2.0;
    format      ascii;
    class       surfaceScalarField;
    location    "64";
    object      phi;
}
// * * * * * * * * * * * * * * * * * * * * * * * * * * * * * * * * * * * * * //

dimensions      [0 3 -1 0 0 0 0];
oriented        oriented;


internalField   nonuniform List<scalar> 
4262
(
0.10713
0.470858
0.0955596
0.705157
0.0693658
0.858497
0.0473446
1.02078
0.0309629
1.2149
0.0197547
1.44943
0.012349
1.73327
0.00713958
2.07625
0.00315113
2.48923
-0.000620603
2.98606
-0.00425837
2.98593
-0.00803952
2.48902
-0.013075
2.07607
-0.0202118
1.733
-0.0311316
1.44914
-0.0471682
1.21455
-0.0688988
1.02049
-0.0951742
0.858578
-0.107059
0.705471
0.470929
0.112866
0.357992
0.135268
0.682754
0.120367
0.873398
0.0978045
1.04335
0.0745361
1.23817
0.0527965
1.47117
0.034381
1.75168
0.0201399
2.09049
0.00886657
2.50051
-0.00104072
2.99597
-0.0111246
2.99601
-0.0223099
2.50021
-0.0363724
2.09013
-0.0547242
1.75135
-0.0765852
1.471
-0.100367
1.23833
-0.12358
1.04371
-0.137053
0.872052
-0.113575
0.681992
0.357354
0.0920492
0.265943
0.124976
0.649828
0.121108
0.877266
0.104841
1.05961
0.0861945
1.25681
0.0670491
1.49031
0.048072
1.77066
0.0300072
2.10855
0.0134322
2.51708
-0.00265453
3.01206
-0.0183757
3.01174
-0.0343319
2.51617
-0.051819
2.10762
-0.0701881
1.76972
-0.0884783
1.48929
-0.105647
1.2555
-0.119719
1.05778
-0.12519
0.877522
-0.0923387
0.649141
0.265016
0.063976
0.201967
0.104791
0.609013
0.106558
0.8755
0.0951646
1.07101
0.0812338
1.27074
0.0664966
1.50505
0.050374
1.78678
0.03319
2.12574
0.0155052
2.53477
-0.00307368
3.03064
-0.0216085
3.03027
-0.0390515
2.53361
-0.0555362
2.12411
-0.0707959
1.78498
-0.0846429
1.50314
-0.0983558
1.26922
-0.110096
1.06952
-0.107082
0.874508
-0.0649238
0.606984
0.200092
0.0374722
0.164494
0.0806996
0.565785
0.090968
0.865232
0.0837557
1.07822
0.0711387
1.28336
0.0592708
1.51692
0.0462299
1.79983
0.0312716
2.14069
0.0142832
2.55175
-0.00506521
3.04999
-0.0238316
3.04904
-0.0396293
2.54941
-0.0534694
2.13795
-0.0655396
1.79705
-0.0767627
1.51436
-0.0887047
1.28116
-0.0951017
1.07592
-0.0832705
0.862676
-0.0384263
0.562139
0.161666
0.0194596
0.145035
0.0571831
0.528062
0.0725623
0.849852
0.0704475
1.08033
0.0616252
1.29218
0.0507261
1.52782
0.0395544
1.811
0.0269063
2.15334
0.0118616
2.5668
-0.00569697
3.06754
-0.0229835
3.06632
-0.0373969
2.56382
-0.0489596
2.14951
-0.0589325
1.80702
-0.06882
1.52425
-0.0764506
1.28879
-0.0772306
1.0767
-0.0600554
0.845501
-0.0203894
0.522473
0.141276
0.0106034
0.134431
0.0422904
0.496375
0.0583646
0.833778
0.0586127
1.08009
0.0524351
1.29836
0.0430208
1.53723
0.0325734
1.82144
0.0211532
2.16476
0.00778037
2.58017
-0.00827689
3.0836
-0.0237397
3.08179
-0.0355175
2.5756
-0.0452263
2.15922
-0.0540567
1.81585
-0.0619435
1.53214
-0.0664759
1.29332
-0.064492
1.07471
-0.0460215
0.827031
-0.0117405
0.488192
0.129536
0.00655368
0.127878
0.0328923
0.470036
0.0491293
0.817541
0.0506268
1.07859
0.0455202
1.30347
0.0371332
1.54562
0.0274793
1.8311
0.0166216
2.17562
0.00461456
2.59218
-0.00931196
3.09753
-0.0227335
3.09521
-0.0336865
2.58655
-0.0429757
2.16851
-0.0506288
1.82351
-0.057089
1.5386
-0.0602246
1.29646
-0.0565453
1.07103
-0.0373464
0.807832
-0.00790698
0.458753
0.121629
0.00469546
0.123182
0.0264915
0.44824
0.0422364
0.801796
0.0442916
1.07653
0.0396244
1.30813
0.0319672
1.55328
0.0227943
1.84027
0.0120848
2.18633
0.000186895
2.60408
-0.0129066
3.11062
-0.0248601
3.10716
-0.0344827
2.59617
-0.0425734
2.1766
-0.0494373
1.83037
-0.0547827
1.54394
-0.0569802
1.29865
-0.0518519
1.0659
-0.0320871
0.788067
-0.00638835
0.433054
0.115241
0.00372822
0.119454
0.0216296
0.430339
0.0367337
0.786692
0.0394331
1.07383
0.0350005
1.31257
0.0275481
1.56073
0.0187139
1.84911
0.00873166
2.19631
-0.00241775
2.61523
-0.0146515
3.12285
-0.0261747
3.11868
-0.0356702
2.60567
-0.0431909
2.18412
-0.0490744
1.83625
-0.0537212
1.54859
-0.0548999
1.29983
-0.0484679
1.05947
-0.0284292
0.768028
-0.00581106
0.410436
0.109429
0.00302881
0.116425
0.0174637
0.415904
0.0313421
0.772814
0.0342545
1.07092
0.0300555
1.31677
0.0228598
1.56792
0.0142197
1.85775
0.00407933
2.20645
-0.00747172
2.62678
-0.0196714
3.13505
-0.0303011
3.12931
-0.038199
2.61357
-0.0446257
2.19055
-0.0499922
1.84162
-0.0537817
1.55238
-0.0538526
1.2999
-0.0459668
1.05159
-0.0257412
0.747803
-0.00555153
0.390246
0.103878
0.00233762
0.114088
0.0137265
0.404515
0.0262228
0.760317
0.0292702
1.06787
0.0252275
1.32081
0.0180965
1.57505
0.00955165
1.86629
-8.22649e-05
2.21609
-0.0107153
2.63741
-0.0225427
3.14688
-0.0332623
3.14003
-0.0415163
2.62182
-0.0473816
2.19641
-0.0515842
1.84582
-0.0542398
1.55503
-0.0535586
1.29922
-0.044246
1.04227
-0.0238738
0.727431
-0.00543608
0.371809
0.0984418
0.00167792
0.11241
0.0104724
0.39572
0.0212183
0.749572
0.0237462
1.06535
0.0195492
1.32501
0.0124019
1.5822
0.0037263
1.87497
-0.00629779
2.22611
-0.0176224
2.64873
-0.0296406
3.1589
-0.0394084
3.1498
-0.0457539
2.62817
-0.050424
2.20108
-0.0540162
1.84942
-0.0557364
1.55675
-0.0540564
1.29754
-0.0433923
1.03161
-0.0226941
0.706732
-0.00538174
0.354496
0.0930601
0.000814109
0.111596
0.00700689
0.389528
0.0160878
0.740491
0.0182901
1.06314
0.0139192
1.32938
0.00657693
1.58954
-0.00221082
1.88375
-0.0120872
2.23599
-0.0229346
2.65958
-0.0343257
3.17029
-0.044136
3.15961
-0.0508115
2.63484
-0.0547344
2.205
-0.0572854
1.85197
-0.0578928
1.55736
-0.0551965
1.29485
-0.0431384
1.01955
-0.0220027
0.685597
-0.00535925
0.337853
0.0877008
0.000122363
0.111473
0.00411483
0.385535
0.010783
0.733822
0.0116924
1.06223
0.00665365
1.33442
-0.00125762
1.59746
-0.0107673
1.89326
-0.0213985
2.24662
-0.0327568
2.67094
-0.044028
3.18156
-0.052423
3.16801
-0.0570445
2.63946
-0.0599498
2.20791
-0.0618551
1.85387
-0.0616669
1.55717
-0.0573988
1.29058
-0.0436829
1.00584
-0.0218327
0.663747
-0.00542226
0.321442
0.0822786
-0.000865529
0.112339
0.000404108
0.384266
0.00504804
0.729178
0.005173
1.06211
-0.000418539
1.34001
-0.00899742
1.60603
-0.0188651
1.90313
-0.0294319
2.25718
-0.0405556
2.68206
-0.0517624
3.19277
-0.0601486
3.17639
-0.0647253
2.64404
-0.0666757
2.20986
-0.067632
1.85483
-0.0665116
1.55605
-0.0606082
1.28468
-0.0449985
0.990227
-0.022159
0.640907
-0.00557632
0.30486
0.0767023
-0.00172573
0.114065
-0.00266983
0.38521
-0.000849076
0.727358
-0.00258959
1.06385
-0.00929865
1.34672
-0.0188241
1.61556
-0.0299277
1.91423
-0.042124
2.26938
-0.0545484
2.69449
-0.065297
3.20352
-0.0718503
3.18295
-0.075098
2.64729
-0.0763297
2.21109
-0.0759734
1.85447
-0.0731319
1.55321
-0.0652594
1.2768
-0.0473517
0.972319
-0.0230702
0.616625
-0.00586758
0.287657
0.0708347
-0.00308455
0.117149
-0.00642087
0.388546
-0.00821178
0.729149
-0.0116374
1.06728
-0.0192941
1.35437
-0.0298477
1.62611
-0.0417159
1.9261
-0.054024
2.28169
-0.0660529
2.70652
-0.0771238
3.21459
-0.0843508
3.19017
-0.0867907
2.64973
-0.0862024
2.2105
-0.0848299
1.8531
-0.0811755
1.54956
-0.071091
1.26672
-0.0505786
0.951807
-0.0244467
0.590493
-0.00624208
0.269453
0.0645926
-0.00438434
0.121533
-0.0106455
0.394807
-0.0157741
0.734277
-0.0220173
1.07352
-0.0310439
1.3634
-0.0428757
1.63795
-0.0561959
1.93942
-0.0707593
2.29625
-0.0853534
2.72111
-0.0967893
3.22602
-0.101293
3.19468
-0.101867
2.6503
-0.101232
2.20987
-0.0980102
1.84988
-0.0917105
1.54326
-0.0789374
1.25395
-0.05513
0.927999
-0.0264316
0.561795
-0.00675199
0.249773
0.0578406
-0.0058278
0.127361
-0.0157097
0.404689
-0.0250094
0.743577
-0.0342661
1.08277
-0.0454379
1.37457
-0.0592982
1.65181
-0.0744284
1.95455
-0.0896544
2.31148
-0.103256
2.73471
-0.113596
3.23636
-0.119125
3.2002
-0.119508
2.65068
-0.11593
2.20629
-0.111404
1.84535
-0.104002
1.53585
-0.0879018
1.23784
-0.0602669
0.900364
-0.028636
0.530164
-0.00724463
0.228382
0.050596
-0.00815659
0.135518
-0.0225207
0.419053
-0.0370878
0.758144
-0.0497427
1.09543
-0.0628652
1.38769
-0.0786426
1.66758
-0.0956502
1.97156
-0.113207
2.32904
-0.129672
2.75118
-0.142078
3.24877
-0.144615
3.20274
-0.141604
2.64767
-0.137366
2.20205
-0.130357
1.83834
-0.119351
1.52485
-0.0995005
1.21799
-0.0670361
0.8679
-0.0313597
0.494488
-0.00781221
0.204834
0.0427838
-0.0105557
0.146073
-0.0296243
0.438122
-0.0500468
0.778567
-0.067747
1.11313
-0.084657
1.4046
-0.103762
1.68669
-0.123804
1.9916
-0.142953
2.34818
-0.15835
2.76657
-0.166614
3.25703
-0.167771
3.2039
-0.164537
2.64444
-0.157645
2.19516
-0.149471
1.83017
-0.136602
1.51198
-0.111805
1.1932
-0.0736846
0.82978
-0.0338516
0.454655
-0.00822927
0.179212
0.0345545
-0.0153464
0.16142
-0.042191
0.464967
-0.0698026
0.806178
-0.0923662
1.13569
-0.112678
1.42492
-0.135235
1.70924
-0.157544
2.01391
-0.178035
2.36868
-0.194302
2.78284
-0.204348
3.26708
-0.204133
3.20369
-0.196249
2.63655
-0.186812
2.18572
-0.174937
1.8183
-0.156934
1.49398
-0.126586
1.16285
-0.0817981
0.784992
-0.0364827
0.409339
-0.00857581
0.151305
0.0259787
-0.0194391
0.180859
-0.0549004
0.500428
-0.0921349
0.843413
-0.122655
1.16621
-0.149116
1.45138
-0.176077
1.73621
-0.201257
2.03909
-0.222795
2.39021
-0.23797
2.79802
-0.242425
3.27154
-0.235924
3.19718
-0.22597
2.6266
-0.214285
2.17404
-0.200457
1.80447
-0.179358
1.47288
-0.141615
1.1251
-0.0884736
0.731851
-0.0380495
0.358915
-0.00846994
0.121725
0.0175088
-0.0326555
0.213514
-0.0818183
0.549591
-0.129604
0.891198
-0.166428
1.20304
-0.198043
1.48299
-0.229229
1.76739
-0.255448
2.06531
-0.27578
2.41055
-0.287372
2.80961
-0.288042
3.27221
-0.279688
3.18883
-0.266475
2.61339
-0.251486
2.15905
-0.233121
1.7861
-0.204157
1.44391
-0.157808
1.07876
-0.0960305
0.670074
-0.0395964
0.302481
-0.00828859
0.0904175
0.00922017
-0.0470877
0.260602
-0.120969
0.623472
-0.184827
0.955056
-0.230488
1.2487
-0.268252
1.52076
-0.299852
1.79899
-0.323495
2.08895
-0.339869
2.42692
-0.346962
2.8167
-0.342206
3.26745
-0.325792
3.17242
-0.306406
2.594
-0.286639
2.13928
-0.26362
1.76308
-0.229061
1.40935
-0.171897
1.02159
-0.0986538
0.596831
-0.0383743
0.242202
-0.00803492
0.0600781
0.00118525
-0.0341017
0.294704
-0.0978668
0.687237
-0.156571
1.01376
-0.204505
1.29663
-0.248107
1.56436
-0.287356
1.83824
-0.32429
2.12589
-0.357837
2.46047
-0.383811
2.84267
-0.397479
3.28112
-0.397009
3.17195
-0.388432
2.58543
-0.373543
2.12439
-0.347037
1.73658
-0.293859
1.35618
-0.209128
0.936861
-0.111642
0.499345
-0.0419759
0.172535
-0.00935365
0.0274559
-0.0081684
-0.0125497
0.307254
-0.0476026
0.72229
-0.0898843
1.05604
-0.129794
1.33654
-0.169424
1.60399
-0.204905
1.87372
-0.238091
2.15907
-0.266936
2.48931
-0.287866
2.8636
-0.296817
3.29007
-0.29217
3.1673
-0.276135
2.56939
-0.252097
2.10035
-0.218414
1.70289
-0.17296
1.31072
-0.111491
0.875392
-0.0511627
0.439017
-0.019054
0.140427
-0.00460457
0.0130064
-0.012773
2.79764e-05
0.307226
-0.0245248
0.746843
-0.0541563
1.08567
-0.0847599
1.36714
-0.116952
1.63618
-0.148129
1.9049
-0.176999
2.18794
-0.201075
2.51339
-0.217052
2.87958
-0.221212
3.29423
-0.208852
3.15494
-0.187033
2.54757
-0.162794
2.07611
-0.133999
1.6741
-0.0937312
1.27045
-0.0484038
0.830064
-0.017113
0.407726
-0.00650508
0.129819
-0.00208231
0.00858362
-0.0148553
0.000765316
0.30646
-0.0130436
0.760652
-0.0343074
1.10694
-0.0588694
1.39171
-0.0850419
1.66235
-0.111369
1.93123
-0.135838
2.21241
-0.156243
2.53379
-0.169178
2.89252
-0.168754
3.29381
-0.152004
3.13819
-0.129185
2.52475
-0.102377
2.04931
-0.0694767
1.6412
-0.0366895
1.23767
-0.0100746
0.80345
0.0022699
0.395381
0.00172543
0.130363
-4.87581e-05
0.0103578
-0.014904
0.00459909
0.301861
-0.00410743
0.769358
-0.0223985
1.12523
-0.043585
1.41289
-0.0656725
1.68444
-0.0876235
1.95318
-0.108473
2.23326
-0.125489
2.55081
-0.134781
2.90181
-0.131716
3.29074
-0.115445
3.12192
-0.0907671
2.50008
-0.0625109
2.02105
-0.0362432
1.61493
-0.00754008
1.20896
0.0136416
0.782268
0.0155519
0.393471
0.00815724
0.137758
0.00195416
0.0165609
-0.0129499
0.00522988
0.296631
-0.000656555
0.775245
-0.0161796
1.14075
-0.0342212
1.43093
-0.0534349
1.70366
-0.072846
1.97259
-0.0909686
2.25138
-0.105516
2.56536
-0.113209
2.9095
-0.108828
3.28636
-0.0900476
3.10314
-0.0666687
2.4767
-0.0411501
1.99553
-0.0115461
1.58533
0.0105982
1.18682
0.0216041
0.771262
0.0203845
0.394691
0.0108699
0.147272
0.00284303
0.0245878
-0.0101069
0.00463462
0.291997
0.000824527
0.779055
-0.0123977
1.15397
-0.0291691
1.44771
-0.0465761
1.72106
-0.0636736
1.98969
-0.0797508
2.26746
-0.0928992
2.5785
-0.0997715
2.91637
-0.0952724
3.28186
-0.0788251
3.08669
-0.0556976
2.45357
-0.0281058
1.96794
-0.00556373
1.56279
0.0147674
1.16649
0.0258969
0.760133
0.0217322
0.398855
0.0117105
0.157294
0.00323301
0.0330653
-0.00687384
0.00271827
0.289278
-0.000650061
0.782423
-0.0119392
1.16526
-0.026287
1.46205
-0.0421195
1.7369
-0.0582735
2.00584
-0.0736841
2.28287
-0.0864704
2.59129
-0.0932615
2.92316
-0.0885147
3.27711
-0.0716195
3.06979
-0.049962
2.43191
-0.0280629
1.94604
-0.00243332
1.53716
0.0157969
1.14826
0.0228705
0.753059
0.020085
0.401641
0.0110058
0.166373
0.00316683
0.0409042
-0.00370701
0.00127596
0.288002
-0.00140568
0.785105
-0.0120723
1.17593
-0.0256799
1.47566
-0.0407739
1.75199
-0.0558304
2.0209
-0.0703335
2.29738
-0.0825588
2.60352
-0.0892195
2.92982
-0.0857863
3.27368
-0.0717386
3.05575
-0.0505131
2.41069
-0.0260927
1.92162
-0.00734563
1.51841
0.00967144
1.13124
0.0195309
0.743199
0.0165609
0.404611
0.0093195
0.173615
0.0027525
0.0474712
-0.000954517
-0.000475807
0.288478
-0.0047714
0.7894
-0.0138708
1.18503
-0.0257515
1.48754
-0.0397309
1.76597
-0.0544061
2.03557
-0.0688828
2.31185
-0.0814899
2.61612
-0.0893219
2.93766
-0.0877742
3.27213
-0.0737407
3.04171
-0.054515
2.39146
-0.0354095
1.90251
-0.0124418
1.49544
0.00426747
1.11453
0.0112716
0.736195
0.011661
0.404221
0.00670991
0.178566
0.00213564
0.0520455
0.00118112
-0.00131708
0.289795
-0.00586814
0.793951
-0.015034
1.1942
-0.0268168
1.49933
-0.040391
1.77954
-0.05437
2.04955
-0.0684194
2.3259
-0.0812417
2.62894
-0.0900099
2.94643
-0.0902635
3.27239
-0.0786406
3.03009
-0.0600926
2.37291
-0.0382277
1.88065
-0.0214285
1.47864
-0.00577095
1.09887
0.00512917
0.725295
0.00625926
0.403091
0.00420253
0.180623
0.00150665
0.0547414
0.00268777
-0.00292732
0.292723
-0.00839209
0.799416
-0.0169597
1.20276
-0.0276752
1.51004
-0.0403441
1.79221
-0.0541017
2.06331
-0.0684878
2.34029
-0.0821241
2.64258
-0.0922575
2.95656
-0.0948076
3.27494
-0.084892
3.02018
-0.0680728
2.35609
-0.0503407
1.86292
-0.0286303
1.45693
-0.0124278
1.08267
-0.00334748
0.716215
0.00141612
0.398328
0.00161973
0.180419
0.000802976
0.0555581
0.00349075
-0.00376448
0.296487
-0.00906489
0.804716
-0.0178003
1.2115
-0.0286975
1.52094
-0.0412649
1.80478
-0.0546362
2.07668
-0.0688336
2.35449
-0.0828425
2.65659
-0.0943395
2.96806
-0.0996057
3.2802
-0.0923991
3.01297
-0.0762007
2.33989
-0.0542463
1.84096
-0.0371567
1.43984
-0.0207353
1.06625
-0.0076168
0.703096
-0.00268001
0.393391
-0.000260824
0.178
0.000265458
0.0550318
0.00375621
-0.0042341
0.300721
-0.0106491
0.811131
-0.0191526
1.22
-0.0292782
1.53106
-0.0411935
1.81669
-0.0544326
2.08992
-0.0689938
2.36905
-0.0838179
2.67141
-0.096749
2.98099
-0.10416
3.28761
-0.0996637
3.00847
-0.0852675
2.3255
-0.0669791
1.82268
-0.0430424
1.41591
-0.0244938
1.0477
-0.0126367
0.691239
-0.00490813
0.385662
-0.00134418
0.174436
-7.01025e-05
0.0537578
0.00368611
-0.00419584
0.304917
-0.010648
0.817584
-0.0193495
1.2287
-0.0297004
1.54141
-0.0416711
1.82867
-0.0546891
2.10294
-0.0690844
2.38344
-0.0841922
2.68652
-0.0985327
2.99533
-0.108922
3.298
-0.108015
3.00757
-0.0940408
2.31152
-0.0705277
1.79916
-0.0494178
1.3948
-0.0285165
1.0268
-0.0120687
0.674791
-0.00493046
0.378524
-0.00144551
0.170951
-0.000473818
0.0527861
0.00321229
-0.00437866
0.309296
-0.0115428
0.824748
-0.0200186
1.23718
-0.0297475
1.55114
-0.0411554
1.84007
-0.0540031
2.11578
-0.0686507
2.39809
-0.0844926
2.70236
-0.100198
3.01103
-0.112463
3.31027
-0.114014
3.00912
-0.102519
2.30003
-0.0834034
1.78005
-0.0538575
1.36525
-0.0280462
1.00099
-0.0108725
0.657618
-0.000154959
0.367807
0.00266312
0.168133
0.00166919
0.05378
0.00488148
-0.00432185
0.313618
-0.0112073
0.831633
-0.0196614
1.24563
-0.0295263
1.56101
-0.0409549
1.8515
-0.0536184
2.12845
-0.068099
2.41257
-0.0841325
2.7184
-0.100937
3.02784
-0.11586
3.32519
-0.121608
3.01486
-0.111663
2.29008
-0.0874561
1.75584
-0.0596659
1.33746
-0.0275132
0.968837
-0.00255342
0.632658
0.00906725
0.356186
0.00678909
0.170411
-0.00109551
0.0616646
0.00378596
-0.00445618
0.318074
-0.0116748
0.838852
-0.0198163
1.25377
-0.029078
1.57027
-0.0399308
1.86235
-0.0523513
2.14087
-0.0669559
2.42717
-0.0835501
2.73499
-0.101447
3.04573
-0.118075
3.34182
-0.126164
3.02295
-0.119504
2.28342
-0.101411
1.73775
-0.0654275
1.30148
-0.0242627
0.927672
0.0113404
0.597055
0.0372441
0.330282
0.0445481
0.163107
0.0279699
0.0782428
0.0317558
-0.00430775
0.322381
-0.0111003
0.845644
-0.0190841
1.26176
-0.0283501
1.57954
-0.0391347
1.87314
-0.051355
2.15309
-0.0657455
2.44156
-0.0823643
2.75161
-0.100967
3.06434
-0.119723
3.36058
-0.131328
3.03456
-0.128833
2.28093
-0.107165
1.71608
-0.0735673
1.26788
-0.0246369
0.878742
0.0234607
0.548957
0.0607483
0.292995
0.0528141
0.171041
0.0230941
0.107963
0.05485
-0.00425265
0.326634
-0.0112248
0.852617
-0.0188731
1.26941
-0.0275272
1.58819
-0.0377591
1.88337
-0.0496692
2.165
-0.0640336
2.45593
-0.0809872
2.76856
-0.100402
3.08375
-0.120704
3.38088
-0.134013
3.04787
-0.135621
2.28254
-0.123066
1.70352
-0.0850399
1.22985
-0.0300975
0.823799
0.04141
0.47745
0.137879
0.196525
0.203547
0.105374
0.185163
0.126346
0.240013
-0.00408105
0.330715
-0.0106795
0.859215
-0.0183327
1.27706
-0.0272576
1.59711
-0.0379118
1.89403
-0.0503379
2.17742
-0.065511
2.4711
-0.0838611
2.78691
-0.105773
3.10566
-0.13041
3.40551
-0.150187
3.06765
-0.158174
2.29052
-0.144029
1.68938
-0.109962
1.19578
-0.0451658
0.759003
0.0136269
0.418657
-0.0506036
0.260756
-0.354159
0.40893
-0.944741
0.716928
0.901833
-1.60656
-0.00397085
0.334686
-0.0107219
0.865966
-0.0181569
1.28449
-0.0267004
1.60566
-0.0370503
1.90438
-0.0495341
2.18991
-0.0652297
2.4868
-0.0847401
2.80642
-0.10871
3.12963
-0.136947
3.43375
-0.161226
3.09192
-0.174105
2.3034
-0.1781
1.69337
-0.150643
1.16833
-0.11557
0.72393
-0.215255
0.518343
-0.693913
0.739413
-1.45178
1.1668
-2.05704
1.32218
1.21589
-2.3711
-0.00372617
0.338412
-0.00996241
0.872202
-0.0172113
1.29174
-0.0258137
1.61426
-0.036282
1.91484
-0.0489451
2.20257
-0.0649897
2.50284
-0.0852579
2.82669
-0.110958
3.15533
-0.142865
3.46566
-0.174263
3.12332
-0.197032
2.32617
-0.20135
1.69769
-0.182565
1.14954
-0.2678
0.809165
-0.75288
1.00342
-1.55613
1.54267
-2.11543
1.72609
-2.3532
1.55996
1.32955
-2.46686
-0.00361594
0.342028
-0.00980645
0.878393
-0.0167725
1.29871
-0.0249597
1.62245
-0.0350708
1.92495
-0.0477096
2.21521
-0.0641435
2.51928
-0.0854335
2.84798
-0.113127
3.18303
-0.148967
3.5015
-0.186019
3.16037
-0.215217
2.35537
-0.23847
1.72094
-0.311727
1.2228
-0.67672
1.17416
-1.44423
1.77093
-2.03076
2.1292
-2.26945
1.96478
-2.38206
1.67257
1.39311
-2.44562
-0.00329356
0.345322
-0.00888409
0.883983
-0.0155545
1.30538
-0.0237003
1.63059
-0.0339083
1.93516
-0.0466628
2.22796
-0.0633416
2.53596
-0.0852456
2.86989
-0.114544
3.21233
-0.154058
3.54101
-0.199321
3.20564
-0.242192
2.39824
-0.279507
1.75826
-0.460485
1.40378
-1.09625
1.80993
-1.79273
2.4674
-2.11007
2.44654
-2.25736
2.11207
-2.33917
1.75438
1.45915
-2.40521
-0.00329971
0.348621
-0.00907351
0.889757
-0.0157178
1.31202
-0.0237125
1.63859
-0.0339475
1.9454
-0.0469309
2.24095
-0.0641796
2.5532
-0.087234
2.89294
-0.118582
3.24367
-0.162107
3.58454
-0.21356
3.25709
-0.258455
2.44314
-0.344679
1.84448
-0.740483
1.79958
-1.49283
2.56227
-1.96318
2.93776
-2.16282
2.64619
-2.26875
2.21799
-2.34593
1.83157
1.52237
-2.40916
-0.00335478
0.351976
-0.0090729
0.895475
-0.0160836
1.31904
-0.0247438
1.64725
-0.0357339
1.95639
-0.0494881
2.2547
-0.0676059
2.57132
-0.0917874
2.91712
-0.125065
3.27695
-0.172427
3.6319
-0.229743
3.31441
-0.291764
2.50516
-0.478023
2.03074
-1.04559
2.36715
-1.67993
3.19661
-1.95283
3.21065
-2.09925
2.79261
-2.21302
2.33175
-2.30664
1.92519
1.58391
-2.36818
-0.00349926
0.355475
-0.00993782
0.901914
-0.0173735
1.32647
-0.0262505
1.65613
-0.0374917
1.96763
-0.0517873
2.269
-0.0708257
2.59036
-0.0965278
2.94282
-0.132086
3.31251
-0.183642
3.68346
-0.246533
3.3773
-0.330601
2.58922
-0.61238
2.31252
-1.26383
3.0186
-1.75122
3.684
-1.9582
3.41764
-2.09752
2.93193
-2.22129
2.45553
-2.33144
2.03534
1.64252
-2.39004
-0.00342414
0.3589
-0.00967422
0.908164
-0.0175701
1.33437
-0.0273147
1.66587
-0.0394685
1.97978
-0.0546349
2.28416
-0.0746279
2.61035
-0.101491
2.96969
-0.138915
3.34993
-0.193588
3.73813
-0.2616
3.44531
-0.386251
2.71388
-0.773544
2.69981
-1.4102
3.65525
-1.76087
4.03468
-1.93337
3.59013
-2.03493
3.03349
-2.12341
2.544
-2.19014
2.10207
1.63514
-2.18277
-0.00345617
0.362356
-0.0106106
0.915318
-0.019019
1.34278
-0.0289487
1.6758
-0.0413483
1.99218
-0.0570718
2.29989
-0.078003
2.63128
-0.106419
2.9981
-0.146063
3.38958
-0.203433
3.7955
-0.282207
3.52408
-0.451175
2.88284
-0.904503
3.15314
-1.46108
4.21183
-1.72194
4.29554
-1.87311
3.7413
-1.96645
3.12683
-1.96727
2.54482
-1.89744
2.03224
1.59793
-1.86023
-0.00321528
0.365571
-0.00988162
0.921985
-0.0186934
1.35159
-0.0295657
1.68667
-0.0428816
2.0055
-0.0592972
2.3163
-0.0807515
2.65274
-0.109459
3.02681
-0.149391
3.42951
-0.206015
3.85212
-0.291833
3.6099
-0.496666
3.08768
-0.987944
3.64442
-1.42809
4.65197
-1.5923
4.45976
-1.65896
3.80796
-1.66321
3.13109
-1.51547
2.39708
-1.01582
1.53259
0.582108
-0.00284134
0.368412
-0.0107147
0.929858
-0.0201456
1.36102
-0.031237
1.69776
-0.0450654
2.01933
-0.0625796
2.33382
-0.0858508
2.67601
-0.117472
3.05843
-0.161641
3.47368
-0.225772
3.91625
-0.328999
3.71313
-0.582717
3.34139
-1.12267
4.18437
-1.47992
5.00923
-1.57903
4.55887
-1.57687
3.80579
-1.4731
3.02732
-1.23428
2.15826
-0.630647
0.928959
-0.0485398
-0.0025314
0.370944
-0.0091512
0.936478
-0.0188716
1.37074
-0.0313071
1.7102
-0.0466901
2.03471
-0.0658208
2.35295
-0.0911031
2.70129
-0.125292
3.09262
-0.173632
3.52202
-0.243323
3.98595
-0.366155
3.83596
-0.681151
3.65639
-1.24142
4.74464
-1.50096
5.26876
-1.55928
4.61719
-1.53664
3.78315
-1.33475
2.82543
-0.781433
1.60494
-0.108386
0.255912
-0.156926
-0.00156797
0.372512
-0.00961197
0.944522
-0.0199336
1.38106
-0.0323764
1.72264
-0.0480424
2.05038
-0.0681546
2.37306
-0.0952069
2.72834
-0.1324
3.12981
-0.184714
3.57433
-0.263162
4.06439
-0.412388
3.98519
-0.784458
4.02846
-1.31901
5.27919
-1.49463
5.44438
-1.52569
4.64825
-1.43732
3.69478
-1.10023
2.48834
-0.312442
0.817158
0.0247255
-0.0812563
-0.1322
-0.000963713
0.373475
-0.00658824
0.950146
-0.0167646
1.39124
-0.0306563
1.73653
-0.0479328
2.06765
-0.0696655
2.39479
-0.0987538
2.75743
-0.138339
3.1694
-0.193507
3.6295
-0.279896
4.15078
-0.455416
4.16071
-0.893637
4.46668
-1.36443
5.74998
-1.48029
5.56024
-1.48259
4.65055
-1.25785
3.47003
-0.68523
1.91572
-0.0627829
0.194711
0.0300686
-0.174108
-0.102132
5.34053e-05
0.373422
-0.00614175
0.956342
-0.0166339
1.40173
-0.0302453
1.75014
-0.0472985
2.08471
-0.0698086
2.4173
-0.100354
2.78798
-0.142354
3.2114
-0.20097
3.68811
-0.296878
4.24669
-0.498598
4.36243
-0.986646
4.95473
-1.3595
6.12284
-1.4235
5.62425
-1.3771
4.60415
-1.08888
3.18182
-0.322009
1.14884
0.00468933
-0.131987
0.0148196
-0.184238
-0.0873119
0.00326789
0.370154
0.000597589
0.959012
-0.0100765
1.4124
-0.0252083
1.76528
-0.0436002
2.1031
-0.0676277
2.44133
-0.0998814
2.82023
-0.14374
3.25526
-0.20505
3.74943
-0.308842
4.35048
-0.536784
4.59037
-1.04891
5.46686
-1.32391
6.39784
-1.36422
5.66455
-1.22395
4.46389
-0.769797
2.72766
-0.0680303
0.447078
0.0444489
-0.244466
0.0241894
-0.163979
-0.0631226
0.00426513
0.365889
0.00216639
0.961111
-0.00781528
1.42238
-0.0216302
1.77909
-0.039007
2.12047
-0.063461
2.46578
-0.096465
2.85324
-0.141862
3.30065
-0.205811
3.81337
-0.317777
4.46245
-0.575555
4.84815
-1.07066
5.96196
-1.26025
6.58743
-1.26928
5.67358
-1.04942
4.24402
-0.459303
2.13754
-0.0183823
0.00615787
-0.00667063
-0.256178
0.00476355
-0.175413
-0.058359
0.00869619
0.357193
0.0102929
0.959514
0.00343292
1.42924
-0.0104766
1.793
-0.0292535
2.13925
-0.0545425
2.49107
-0.0883135
2.88701
-0.134321
3.34666
-0.200002
3.87906
-0.318179
4.58063
-0.59792
5.12789
-1.04836
6.41241
-1.17209
6.71116
-1.15584
5.65733
-0.895649
3.98383
-0.262683
1.50458
-0.0699626
-0.186562
-0.0387042
-0.287437
-0.0143436
-0.199773
-0.0727026
0.0112589
0.345934
0.0155999
0.955173
0.0104352
1.43441
0.000272737
1.80316
-0.0181427
2.15767
-0.0424862
2.51542
-0.0756015
2.92012
-0.12148
3.39254
-0.187623
3.9452
-0.30979
4.70279
-0.596289
5.41439
-0.983924
6.80004
-1.04837
6.77561
-0.979199
5.58816
-0.675642
3.68027
-0.0694397
0.898375
0.0157261
-0.271728
0.000827014
-0.272537
-0.00143513
-0.197511
-0.0741377
0.0185426
0.327391
0.0304194
0.943296
0.0295673
1.43526
0.018576
1.81415
0.000847643
2.17539
-0.0217381
2.538
-0.0539366
2.95232
-0.0985951
3.4372
-0.163602
4.01021
-0.28564
4.82483
-0.566304
5.69505
-0.872831
7.10657
-0.90786
6.81064
-0.804461
5.48476
-0.443351
3.31916
0.0686222
0.386402
0.0789831
-0.282089
0.0584642
-0.252019
0.0223295
-0.161376
-0.0518083
0.0241753
0.303216
0.042005
0.925466
0.04485
1.43242
0.0381359
1.82087
0.0257313
2.1878
0.00417995
2.55955
-0.0255757
2.98208
-0.0672928
3.47892
-0.128725
4.07164
-0.244386
4.94049
-0.492869
5.94353
-0.713495
7.3272
-0.741894
6.83904
-0.63859
5.38145
-0.305754
2.98632
0.000520565
0.0801272
0.0191275
-0.300696
0.0298895
-0.262781
0.0147296
-0.146216
-0.0370787
0.0352349
0.267981
0.0656397
0.895062
0.0771537
1.4209
0.0740155
1.82401
0.0633019
2.19851
0.0443666
2.57849
0.0174241
3.00902
-0.0209729
3.51731
-0.0767396
4.1274
-0.176964
5.04072
-0.3814
6.14797
-0.537037
7.48283
-0.559235
6.86124
-0.460242
5.28246
-0.183368
2.70945
-0.0726346
-0.0306058
-0.0539335
-0.319397
-0.0207054
-0.296009
-0.00256355
-0.164358
-0.0396423
0.0446454
0.223336
0.0869095
0.852797
0.106812
1.401
0.1114
1.81942
0.107275
2.20264
0.093131
2.59263
0.0717716
3.03038
0.0399692
3.54912
-0.0102307
4.1776
-0.0852265
5.11571
-0.222219
6.28496
-0.311533
7.57215
-0.32254
6.87225
-0.268669
5.22859
-0.0797253
2.52051
-0.0949755
-0.0153556
-0.0707775
-0.343595
-0.0277081
-0.339078
0.000151551
-0.192218
-0.0394907
0.058212
0.165124
0.121065
0.789944
0.158393
1.36367
0.171174
1.80664
0.171241
2.20257
0.161568
2.60231
0.147072
3.04487
0.124279
3.57191
0.0884699
4.21341
0.0399233
5.16426
-0.0166903
6.34157
-0.0487226
7.60418
-0.0495823
6.87311
-0.0114246
5.19043
0.0499844
2.4591
-0.0882163
0.122845
-0.0915834
-0.340228
-0.0425768
-0.388085
0.00991675
-0.244711
-0.029574
0.0602559
0.104868
0.150815
0.699385
0.207147
1.30734
0.23434
1.77944
0.246399
2.19051
0.245411
2.60329
0.238331
3.05196
0.226541
3.5837
0.209169
4.23078
0.18938
5.18405
0.239532
6.29142
0.282115
7.5616
0.289914
6.86531
0.187679
5.29267
-0.0684455
2.71522
-0.315764
0.370164
-0.350694
-0.305298
-0.263295
-0.475484
-0.107511
-0.400496
-0.137085
0.0499737
0.0548942
0.184313
0.565046
0.280933
1.21072
0.327268
1.73311
0.34726
2.17052
0.355222
2.59533
0.355604
3.05157
0.35725
3.58205
0.35951
4.22852
0.373601
5.16996
0.520563
6.14446
0.66358
7.41858
0.653837
6.87505
0.452629
5.49388
-0.0570526
3.2249
-0.563639
0.87675
-0.650084
-0.218853
-0.506654
-0.618914
-0.264737
-0.642413
-0.401821
0.03441
0.0204842
0.219148
0.380308
0.345745
1.08412
0.423693
1.65516
0.466435
2.12778
0.489273
2.57249
0.496941
3.04391
0.512068
3.56693
0.539405
4.20119
0.596431
5.11293
0.838656
5.90223
1.20341
7.05383
1.40344
6.67502
1.49017
5.40715
1.05584
3.65923
0.284557
1.64803
-0.252612
0.318316
-0.46401
-0.407516
-0.28138
-0.825043
-0.683201
0.0306661
-0.0101819
0.236319
0.174656
0.449629
0.870813
0.565191
1.5396
0.616438
2.07653
0.6504
2.53853
0.671446
3.02286
0.695872
3.5425
0.745836
4.15122
0.859103
4.99966
1.22044
5.5409
1.84447
6.4298
2.20778
6.31171
2.45264
5.16229
2.33429
3.77758
1.67717
2.30516
0.982313
1.01318
0.40997
0.164827
0.0996958
-0.514769
-0.583505
0.0244651
-0.034647
0.159855
0.0392654
0.494882
0.535786
0.693398
1.34108
0.794952
1.97498
0.844428
2.48905
0.881123
2.98616
0.909877
3.51375
0.981908
4.07919
1.11834
4.86323
1.50987
5.14937
2.29149
5.64818
2.6865
5.91669
2.86872
4.98008
2.73339
3.9129
2.22907
2.80948
1.60149
1.64075
1.05858
0.707735
0.427671
0.116142
-0.155834
0.00293391
-0.0375809
0.0797494
-0.0375501
0.413394
0.202142
0.713765
1.04071
0.853756
1.83499
0.89394
2.44887
0.899826
2.98028
0.88291
3.53066
0.881938
4.08016
0.924552
4.82061
1.08202
4.9919
1.52636
5.20383
1.70549
5.73756
1.74618
4.93939
1.65978
3.9993
1.41991
3.04935
1.02898
2.03169
0.612293
1.12442
0.255969
0.472466
0.100135
0.00414312
-0.041724
0.0451445
-0.0785515
0.218136
0.0291506
0.54651
0.712338
0.718208
1.66329
0.780373
2.3867
0.79766
2.96299
0.792581
3.53574
0.77394
4.0988
0.792512
4.80204
0.86798
4.91644
1.17059
4.90123
1.35958
5.54857
1.37286
4.92611
1.31142
4.06075
1.14825
3.21252
0.857234
2.3227
0.536989
1.44466
0.22676
0.782696
0.326895
0.00482296
-0.0465469
0.0228232
-0.0965517
0.0944203
-0.0424466
0.379719
0.427039
0.576903
1.46611
0.662506
2.3011
0.680429
2.94507
0.678256
3.53791
0.654247
4.12281
0.652441
4.80385
0.680775
4.8881
0.860143
4.72186
1.03872
5.37
1.03666
4.92816
0.977788
4.11962
0.854665
3.33564
0.648084
2.52928
0.401208
1.69154
0.161857
1.02205
0.488752
-0.00442192
-0.042125
-0.00260886
-0.0983648
0.0318468
-0.0769022
0.238081
0.220805
0.439286
1.2649
0.543094
2.19729
0.566281
2.92188
0.564037
3.54016
0.536163
4.15069
0.517315
4.8227
0.522714
4.8827
0.627079
4.61749
0.764812
5.23226
0.755494
4.93748
0.694074
4.18104
0.59757
3.43214
0.452081
2.67477
0.269771
1.87385
0.0989043
1.19291
0.587656
-0.0126024
-0.0295226
-0.0106458
-0.100321
0.0143298