/*--------------------------------*- C++ -*----------------------------------*\
| =========                 |                                                 |
| \\      /  F ield         | OpenFOAM: The Open Source CFD Toolbox           |
|  \\    /   O peration     | Version:  v2012                                 |
|   \\  /    A nd           | Website:  www.openfoam.com                      |
|    \\/     M anipulation  |                                                 |
\*---------------------------------------------------------------------------*/
FoamFile
{
    version     2.0;
    format      ascii;
    class       volScalarField;
    location    "19";
    object      p;
}
// * * * * * * * * * * * * * * * * * * * * * * * * * * * * * * * * * * * * * //

dimensions      [0 2 -2 0 0 0 0];


internalField   nonuniform List<scalar> 
2200
(
0.402999
0.381515
0.365625
0.349984
0.335428
0.322961
0.312647
0.30454
0.298801
0.295819
0.296108
0.299618
0.305739
0.314121
0.324629
0.337238
0.351887
0.367587
0.383512
0.405015
0.335384
0.332133
0.329239
0.325168
0.319748
0.31333
0.306789
0.300888
0.296389
0.293911
0.294204
0.297242
0.302137
0.30834
0.315093
0.321655
0.327186
0.331332
0.334267
0.337534
0.295413
0.295658
0.29775
0.29912
0.299559
0.298774
0.296834
0.294242
0.291768
0.29017
0.29051
0.292686
0.29561
0.298525
0.300697
0.301642
0.30131
0.300066
0.298076
0.297847
0.272758
0.274242
0.276924
0.279471
0.282043
0.28417
0.285356
0.285599
0.28517
0.284728
0.285116
0.286228
0.287161
0.287293
0.286384
0.284461
0.282034
0.279573
0.276931
0.275473
0.258416
0.260349
0.2633
0.266321
0.269312
0.272246
0.274817
0.276782
0.277945
0.278544
0.279012
0.279207
0.278638
0.277114
0.274866
0.272163
0.269338
0.266403
0.263509
0.261592
0.251518
0.253075
0.255327
0.257922
0.260639
0.263346
0.265964
0.268467
0.270549
0.271973
0.272507
0.272025
0.27068
0.268723
0.266488
0.264062
0.26155
0.259096
0.25692
0.255366
0.24849
0.249506
0.250849
0.252835
0.255085
0.257283
0.259361
0.261459
0.263529
0.265227
0.265861
0.265311
0.264144
0.262707
0.261097
0.259242
0.257236
0.255417
0.254158
0.253144
0.246112
0.246709
0.247568
0.249346
0.251403
0.253392
0.255219
0.256949
0.258627
0.260087
0.260904
0.260873
0.260293
0.259372
0.258112
0.256527
0.254756
0.253166
0.252394
0.2518
0.243926
0.244189
0.244862
0.246534
0.248467
0.250444
0.252349
0.254109
0.255678
0.257026
0.258044
0.258432
0.258172
0.257421
0.256228
0.254785
0.253198
0.251765
0.251192
0.250945
0.24221
0.242247
0.242736
0.243949
0.245413
0.247061
0.248877
0.250771
0.252592
0.254184
0.255427
0.255982
0.255779
0.255126
0.254263
0.25325
0.252214
0.251291
0.250924
0.250859
0.240069
0.240038
0.240355
0.24102
0.241902
0.24303
0.244424
0.246125
0.248058
0.250026
0.251626
0.252506
0.252717
0.252489
0.252162
0.251754
0.251385
0.251056
0.250907
0.250906
0.237042
0.236985
0.23724
0.237673
0.238352
0.239244
0.240344
0.24181
0.243614
0.24574
0.247748
0.249186
0.25011
0.25053
0.250611
0.250681
0.250692
0.250658
0.250629
0.250633
0.233605
0.233561
0.233814
0.234251
0.234996
0.235956
0.23718
0.238783
0.240717
0.243061
0.245461
0.247358
0.248689
0.24956
0.250086
0.250372
0.250438
0.250449
0.250444
0.250448
0.22977
0.229759
0.229981
0.230473
0.231284
0.232384
0.233873
0.235772
0.238142
0.24102
0.244001
0.246382
0.248025
0.249178
0.249971
0.250413
0.250626
0.250734
0.250771
0.250772
0.225261
0.225259
0.225444
0.225927
0.226718
0.227849
0.229501
0.231692
0.234559
0.238161
0.241993
0.245109
0.247321
0.248866
0.249954
0.250653
0.251092
0.251353
0.251461
0.251451
0.219769
0.219747
0.219988
0.220508
0.221371
0.222626
0.224439
0.22696
0.230384
0.234801
0.239645
0.243702
0.24666
0.248741
0.250227
0.251231
0.2519
0.252307
0.252483
0.252469
0.213361
0.213325
0.21362
0.214226
0.215257
0.216822
0.219053
0.222154
0.226348
0.231779
0.237788
0.242917
0.246682
0.249375
0.25127
0.252547
0.253379
0.253863
0.254072
0.25405
0.205726
0.205697
0.206079
0.20692
0.208265
0.210242
0.213062
0.216977
0.222248
0.22904
0.236498
0.242851
0.247502
0.250824
0.253121
0.254673
0.255689
0.256286
0.256546
0.256522
0.196797
0.196754
0.197213
0.198248
0.199941
0.202447
0.206014
0.210956
0.217603
0.226122
0.235394
0.243222
0.24895
0.253038
0.255883
0.257829
0.259094
0.259823
0.260131
0.260091
0.185882
0.185855
0.186486
0.187827
0.189986
0.193156
0.197688
0.203978
0.212376
0.223046
0.234537
0.244166
0.251206
0.256224
0.25971
0.262087
0.263652
0.26457
0.264959
0.264911
0.172747
0.172684
0.173466
0.175159
0.177943
0.18208
0.187942
0.195993
0.206633
0.219957
0.234094
0.245848
0.254425
0.260538
0.26482
0.267758
0.269683
0.270802
0.27126
0.271188
0.156093
0.156121
0.157252
0.159535
0.163253
0.168738
0.17643
0.186876
0.200407
0.216983
0.234269
0.248514
0.258893
0.266303
0.271487
0.275045
0.277391
0.278749
0.279311
0.279228
0.135116
0.135083
0.136628
0.139852
0.14501
0.152532
0.162879
0.176548
0.193729
0.214227
0.235168
0.252243
0.264649
0.273541
0.279832
0.284193
0.287103
0.288802
0.289466
0.289322
0.107494
0.107803
0.110277
0.114961
0.122377
0.133046
0.147092
0.164964
0.186655
0.211768
0.236867
0.257121
0.271833
0.28244
0.290032
0.295374
0.298936
0.300975
0.301797
0.301628
0.0705455
0.0711145
0.0752251
0.0830622
0.0945015
0.109851
0.129031
0.152336
0.179461
0.209881
0.239603
0.263319
0.280542
0.293063
0.302127
0.30863
0.313136
0.315818
0.316849
0.316527
0.021143
0.0217357
0.0295211
0.0428798
0.0609045
0.0830328
0.109098
0.139067
0.172512
0.208853
0.243496
0.270829
0.290707
0.305314
0.316123
0.324076
0.329664
0.332906
0.333947
0.333522
-0.0459783
-0.0424397
-0.0257677
-0.00320447
0.0236162
0.054095
0.0880667
0.125463
0.165966
0.208948
0.249202
0.280935
0.304333
0.321861
0.335141
0.345297
0.352938
0.357513
0.358855
0.358647
-0.124524
-0.112125
-0.083554
-0.0508846
-0.0143838
0.0247941
0.0669089
0.112086
0.160014
0.210078
0.256698
0.293606
0.32112
0.34225
0.358834
0.371915
0.382342
0.389264
0.392627
0.393125
-0.190496
-0.173751
-0.137728
-0.096759
-0.0514034
-0.0037299
0.046556
0.0994856
0.154615
0.211458
0.263967
0.305464
0.336579
0.36059
0.37959
0.394676
0.406297
0.414633
0.418138
0.418402
-0.239532
-0.224753
-0.183725
-0.137243
-0.0850747
-0.030237
0.0273708
0.0873476
0.149152
0.212374
0.270329
0.315884
0.349833
0.375751
0.395974
0.411864
0.424074
0.432309
0.435827
0.436263
-0.279819
-0.265733
-0.221833
-0.172032
-0.1147
-0.0541588
0.0095452
0.0756434
0.143574
0.212778
0.275728
0.324603
0.36041
0.387328
0.407858
0.42379
0.43612
0.444486
0.448312
0.448739
-0.314497
-0.300177
-0.254195
-0.20203
-0.140632
-0.0756104
-0.00691924
0.0644645
0.137878
0.212291
0.279345
0.330674
0.367837
0.395429
0.4164
0.432589
0.444872
0.453686
0.457573
0.458006
-0.344881
-0.330539
-0.282587
-0.228153
-0.1635
-0.0949956
-0.0222117
0.0536801
0.131799
0.210737
0.281559
0.335503
0.374036
0.402457
0.423738
0.43996
0.452381
0.460966
0.464875
0.465076
-0.372258
-0.358002
-0.308231
-0.2514
-0.184021
-0.112779
-0.0366325
0.0430796
0.1253
0.208485
0.283167
0.339532
0.37944
0.408578
0.430449
0.446901
0.459198
0.467802
0.471432
0.471591
-0.397301
-0.38322
-0.332056
-0.272867
-0.203006
-0.129412
-0.0504246
0.0325639
0.118476
0.205642
0.284016
0.343059
0.38485
0.41498
0.437103
0.453558
0.465736
0.474107
0.477881
0.478151
-0.420904
-0.406409
-0.354573
-0.293384
-0.221209
-0.145362
-0.0638043
0.0220783
0.111297
0.20227
0.284499
0.346775
0.390222
0.421117
0.44372
0.460371
0.472601
0.480879
0.484575
0.484863
-0.443086
-0.428406
-0.376049
-0.313334
-0.239094
-0.161017
-0.0770036
0.0115365
0.103832
0.198555
0.284777
0.349814
0.395019
0.427191
0.450416
0.467351
0.479659
0.487679
0.491522
0.49181
-0.464032
-0.44943
-0.39666
-0.332718
-0.256808
-0.176632
-0.090269
0.000787835
0.0959845
0.194103
0.283922
0.352121
0.400127
0.433689
0.457535
0.474695
0.48708
0.495189
0.498782
0.499008
-0.484254
-0.469496
-0.416418
-0.351489
-0.274317
-0.192322
-0.103811
-0.0104114
0.0873871
0.188536
0.281984
0.353985
0.404547
0.440031
0.464932
0.482567
0.494963
0.5027
0.506225
0.50642
-0.504217
-0.488879
-0.435458
-0.369615
-0.291484
-0.208034
-0.117715
-0.0222603
0.077877
0.182005
0.27931
0.355023
0.408829
0.446681
0.472871
0.49089
0.503252
0.510894
0.514096
0.514123
-0.523871
-0.507715
-0.453932
-0.387161
-0.30822
-0.22364
-0.131874
-0.0346484
0.0676797
0.17465
0.275487
0.354994
0.41269
0.453567
0.481645
0.500258
0.512283
0.51909
0.522034
0.521925
-0.54304
-0.526167
-0.471941
-0.404213
-0.324495
-0.238993
-0.146047
-0.047314
0.0569529
0.166282
0.270137
0.353801
0.415595
0.460144
0.490961
0.510752
0.522303
0.528222
0.530179
0.529816
-0.561562
-0.544192
-0.489513
-0.420842
-0.340336
-0.253997
-0.160056
-0.060088
0.0457685
0.157111
0.263959
0.351752
0.417622
0.466463
0.500986
0.523223
0.534512
0.53747
0.537116
0.537101
-0.579421
-0.561707
-0.506574
-0.437047
-0.35578
-0.268648
-0.173836
-0.0728797
0.034256
0.147365
0.256644
0.347687
0.418057
0.471815
0.511322
0.537462
0.550099
0.550196
0.545115
0.542503
-0.59659
-0.578605
-0.523053
-0.452783
-0.370834
-0.282982
-0.187422
-0.0856657
0.022467
0.1369
0.247847
0.34167
0.416312
0.475614
0.521346
0.553819
0.572038
0.567831
0.560618
0.565467
-0.613079
-0.594823
-0.538864
-0.467978
-0.38547
-0.297013
-0.200843
-0.0984562
0.0104446
0.125861
0.238332
0.334702
0.412976
0.477127
0.529161
0.569972
0.598987
0.589215
0.544998
0.49621
-0.628828
-0.610367
-0.554034
-0.482672
-0.399766
-0.31088
-0.214276
-0.111447
-0.00200085
0.114148
0.227556
0.324952
0.405627
0.474769
0.533628
0.584597
0.628836
0.651292
0.675166
0.725622
-0.643801
-0.625307
-0.568655
-0.496979
-0.413861
-0.324766
-0.227968
-0.124957
-0.0153525
0.100989
0.21468
0.312785
0.394998
0.466771
0.527931
0.578867
0.614728
0.629341
0.609495
0.615496
-0.657963
-0.639613
-0.582696
-0.510844
-0.427643
-0.338526
-0.241741
-0.138824
-0.0294191
0.086699
0.200208
0.297675
0.378686
0.449172
0.507995
0.552108
0.559721
0.525058
0.472873
0.465905
-0.671362
-0.653294
-0.596171
-0.524275
-0.4411
-0.352124
-0.255541
-0.152976
-0.0441308
0.0711495
0.183494
0.278993
0.356611
0.420847
0.472439
0.490302
0.461724
0.39473
0.3247
0.316177
-0.684031
-0.666339
-0.609104
-0.537305
-0.454255
-0.365568
-0.269362
-0.167392
-0.0594515
0.0544615
0.164876
0.258001
0.329271
0.380337
0.407379
0.39784
0.351529
0.251248
0.164127
0.148692
-0.696422
-0.679157
-0.621884
-0.550301
-0.467467
-0.379169
-0.283465
-0.182264
-0.0755155
0.0365356
0.144456
0.232936
0.297001
0.332398
0.325087
0.288286
0.183455
0.0600053
-0.0486649
-0.0709218
-0.70939
-0.692489
-0.635177
-0.563869
-0.481297
-0.3934
-0.298262
-0.197973
-0.0926713
0.0170147
0.121321
0.204674
0.261612
0.274097
0.231774
0.142857
-0.0191651
-0.17522
-0.304635
-0.329338
-0.723418
-0.70677
-0.649281
-0.578224
-0.495924
-0.408391
-0.313855
-0.214559
-0.110828
-0.00380881
0.0963154
0.174522
0.219293
0.204763
0.136578
-0.0197484
-0.233807
-0.457511
-0.643854
-0.690435
-0.738547
-0.722025
-0.664237
-0.59337
-0.511306
-0.424103
-0.330184
-0.23194
-0.129948
-0.0260204
0.0688099
0.141096
0.172747
0.12251
0.0192173
-0.188715
-0.443979
-0.757552
-1.09871
-1.23963
-0.75485
-0.738391
-0.680126
-0.609367
-0.527475
-0.440574
-0.347294
-0.250188
-0.150014
-0.0492604
0.0395802
0.10513
0.120761
0.0338711
-0.123129
-0.360294
-0.627601
-1.01014
-1.6384
-2.23167
-0.772275
-0.75585
-0.697001
-0.626257
-0.544419
-0.457765
-0.365087
-0.269096
-0.170807
-0.0734425
0.00927205
0.0674926
0.0642139
-0.0481559
-0.264626
-0.541653
-0.7846
-1.06735
-1.69808
-3.35812
-0.790886
-0.774433
-0.714912
-0.644134
-0.562262
-0.475825
-0.383754
-0.288984
-0.192767
-0.09879
-0.0219648
0.0263258
0.00375654
-0.118373
-0.377972
-0.66883
-0.85817
-0.935037
-0.97185
-1.39822
-0.810629
-0.794112
-0.734034
-0.663264
-0.581335
-0.495172
-0.403817
-0.310386
-0.216458
-0.126258
-0.0549356
-0.0161884
-0.0592293
-0.171885
-0.43825
-0.700909
-0.854464
-0.886389
-0.84374
-0.893716
-0.831466
-0.814771
-0.754349
-0.683683
-0.601665
-0.515863
-0.425304
-0.333358
-0.242127
-0.156562
-0.0904135
-0.0620093
-0.119559
-0.227275
-0.487311
-0.702731
-0.816653
-0.844283
-0.881844
-0.899193
-0.85323
-0.836157
-0.775787
-0.705409
-0.623182
-0.537846
-0.448226
-0.357956
-0.269658
-0.188907
-0.126799
-0.107393
-0.174672
-0.290895
-0.526737
-0.7045
-0.800471
-0.775211
-0.802432
-0.803288
-0.87557
-0.858226
-0.798301
-0.728304
-0.64568
-0.560972
-0.472362
-0.383668
-0.29825
-0.222387
-0.165
-0.154207
-0.222755
-0.3601
-0.572479
-0.71814
-0.79226
-0.800519
-0.802627
-0.810747
-0.898051
-0.88066
-0.821849
-0.752013
-0.668844
-0.584937
-0.497404
-0.410398
-0.328009
-0.256931
-0.203785
-0.205275
-0.273905
-0.434491
-0.616352
-0.737492
-0.782308
-0.826392
-0.797725
-0.804816
-0.920453
-0.903237
-0.845675
-0.775927
-0.692329
-0.609478
-0.523028
-0.437534
-0.35821
-0.291456
-0.242488
-0.253933
-0.328101
-0.498546
-0.653639
-0.768231
-0.778838
-0.814358
-0.784257
-0.786294
-0.942264
-0.925547
-0.868901
-0.799248
-0.715938
-0.634088
-0.548393
-0.464191
-0.387674
-0.32498
-0.278532
-0.294985
-0.39642
-0.576964
-0.670024
-0.734436
-0.743321
-0.745763
-0.761387
-0.76439
-0.962909
-0.946904
-0.891002
-0.821363
-0.739283
-0.658074
-0.57287
-0.490139
-0.415603
-0.356935
-0.31317
-0.321107
-0.46234
-0.669828
-0.686585
-0.59671
-0.627434
-0.658823
-0.698989
-0.709154
-0.981381
-0.966338
-0.911349
-0.841876
-0.761716
-0.680582
-0.595656
-0.514243
-0.440216
-0.384003
-0.349442
-0.340345
-0.520857
-0.786349
-0.856243
-0.785629
-0.814717
-0.825803
-0.838372
-0.832871
-0.996947
-0.983152
-0.929639
-0.860713
-0.78202
-0.700172
-0.615648
-0.535601
-0.460934
-0.403382
-0.380845
-0.351632
-0.576289
-0.941199
-1.32115
-1.53425
-1.60511
-1.55777
-1.49507
-1.4276
-1.00833
-0.99601
-0.944712
-0.876619
-0.798527
-0.716503
-0.632609
-0.552872
-0.477706
-0.41367
-0.401127
-0.352837
-0.592597
-1.02816
-1.62681
-2.11148
-2.23991
-2.14775
-2.02309
-1.93285
-1.01485
-1.00415
-0.955528
-0.888187
-0.81033
-0.72894
-0.645215
-0.564131
-0.487473
-0.416963
-0.40037
-0.34988
-0.55575
-0.904696
-1.34333
-1.6528
-1.67273
-1.57675
-1.4012
-1.31562
-1.0148
-1.00562
-0.960265
-0.894112
-0.816645
-0.735818
-0.652109
-0.568503
-0.488706
-0.410994
-0.376702
-0.309628
-0.385619
-0.381667
-0.374434
-0.337501
-0.23213
-0.131236
-0.0560286
0.0140057
-1.00688
-0.999204
-0.95794
-0.893174
-0.816513
-0.736119
-0.652431
-0.566811
-0.482309
-0.391263
-0.329851
-0.228678
-0.0977394
0.182891
0.506864
0.767187
0.970795
1.11097
1.1861
1.21296
-0.989149
-0.982563
-0.947083
-0.88509
-0.810049
-0.730128
-0.646726
-0.55973
-0.470412
-0.363409
-0.263003
-0.160845
0.10726
0.512137
0.96307
1.33208
1.60127
1.76117
1.8282
1.84337
-0.960066
-0.954254
-0.925629
-0.867435
-0.795469
-0.718002
-0.636103
-0.548814
-0.454522
-0.34022
-0.208707
-0.12009
0.154242
0.553118
0.97888
1.33573
1.60496
1.76261
1.82769
1.84287
-0.920018
-0.916072
-0.894423
-0.841691
-0.77367
-0.700186
-0.622308
-0.538405
-0.442569
-0.332013
-0.18462
-0.0786964
0.138268
0.446868
0.787821
1.07856
1.30868
1.45248
1.51892
1.53951
-0.869288
-0.86815
-0.85162
-0.805669
-0.74463
-0.677891
-0.607561
-0.533202
-0.447075
-0.345422
-0.193235
-0.0482366
0.090664
0.298954
0.553838
0.764442
0.93385
1.05144
1.11079
1.13243
-0.80275
-0.803837
-0.79094
-0.754639
-0.705057
-0.650162
-0.593078
-0.532658
-0.461189
-0.379067
-0.243193
-0.0974434
0.00917552
0.174904
0.368237
0.51783
0.643347
0.728488
0.771249
0.785399
-0.722907
-0.723879
-0.715697
-0.692375
-0.657998
-0.618911
-0.578626
-0.535334
-0.486077
-0.433221
-0.32387
-0.197835
-0.0758222
0.0655067
0.212037
0.32618
0.423047
0.487926
0.518091
0.521641
-0.651887
-0.651781
-0.646945
-0.634953
-0.615167
-0.59214
-0.570175
-0.549524
-0.534636
-0.517198
-0.46474
-0.358315
-0.216809
-0.0914283
0.0332471
0.134592
0.211676
0.269623
0.285168
0.288259
-0.598805
-0.598947
-0.59701
-0.592034
-0.584079
-0.575814
-0.572707
-0.579366
-0.608506
-0.643155
-0.68259
-0.600597
-0.434541
-0.288356
-0.164008
-0.0555545
0.0295225
0.0743691
0.0907127
0.0988871
-0.559287
-0.560157
-0.560663
-0.560908
-0.560925
-0.565366
-0.580476
-0.61678
-0.695239
-0.813747
-0.958409
-0.894759
-0.717077
-0.537088
-0.350383
-0.216517
-0.133753
-0.0967957
-0.0783532
-0.0737114
-0.519608
-0.521456
-0.523478
-0.527755
-0.534994
-0.545318
-0.575047
-0.635258
-0.756469
-0.970523
-1.1971
-1.13088
-0.915861
-0.703642
-0.503051
-0.364072
-0.291128
-0.250187
-0.236478
-0.236519
-0.468727
-0.470849
-0.473283
-0.478463
-0.488806
-0.50641
-0.540482
-0.607308
-0.740116
-0.971666
-1.23979
-1.16588
-0.941785
-0.712604
-0.546278
-0.451783
-0.387759
-0.366727
-0.359502
-0.359493
-0.404163
-0.406146
-0.409174
-0.413649
-0.422353
-0.43885
-0.471179
-0.532917
-0.652181
-0.849417
-1.04812
-0.962107
-0.770568
-0.619431
-0.527618
-0.462463
-0.429565
-0.424155
-0.420948
-0.420467
-0.327418
-0.328912
-0.331504
-0.335108
-0.341693
-0.354126
-0.377715
-0.423288
-0.509585
-0.645518
-0.76318
-0.663588
-0.528513
-0.468122
-0.443589
-0.416522
-0.416099
-0.415235
-0.414322
-0.413457
-0.24556
-0.246492
-0.248201
-0.250688
-0.254449
-0.261742
-0.275226
-0.301514
-0.350908
-0.426178
-0.493279
-0.390981
-0.323791
-0.316134
-0.307099
-0.33241
-0.342709
-0.347731
-0.349717
-0.349519
-0.167513
-0.167952
-0.168769
-0.169664
-0.171134
-0.174075
-0.179018
-0.188722
-0.206674
-0.232473
-0.238679
-0.201293
-0.197815
-0.199424
-0.214367
-0.243484
-0.254257
-0.26185
-0.264714
-0.26539
-0.101063
-0.101158
-0.101424
-0.10133
-0.101087
-0.100938
-0.10027
-0.0992212
-0.0964614
-0.0834989
-0.0611193
-0.0786456
-0.105921
-0.124949
-0.149414
-0.169683
-0.178345
-0.184606
-0.187221
-0.188051
-0.0496683
-0.049587
-0.0495819
-0.0490665
-0.0480016
-0.0463266
-0.0431362
-0.0377822
-0.0284927
-0.00919406
0.0154862
-0.00674365
-0.0433173
-0.0693521
-0.0941667
-0.109422
-0.117594
-0.122515
-0.124673
-0.125446
-0.012891
-0.012775
-0.0127149
-0.0122525
-0.0111407
-0.0092535
-0.00560476
0.000307005
0.00957007
0.0245227
0.0415654
0.0182976
-0.0115429
-0.0338525
-0.0539622
-0.0657257
-0.0723317
-0.0759865
-0.0776908
-0.0783561
0.011662
0.0117521
0.01173
0.0118075
0.0124464
0.0137366
0.016633
0.0214664
0.028742
0.0387201
0.0475003
0.0287932
0.00566831
-0.0119162
-0.0269114
-0.035726
-0.0409463
-0.0437595
-0.0450833
-0.0456022
0.0264916
0.0265438
0.0263961
0.0260534
0.0260778
0.0265216
0.0281535
0.0312391
0.0360612
0.0420612
0.0452493
0.0320667
0.0146683
0.00136338
-0.0095241
-0.0161122
-0.0201202
-0.0222936
-0.0233749
-0.0237575
0.0339
0.0339212
0.0336864
0.0330958
0.0326957
0.0325031
0.0330143
0.034394
0.0368996
0.0398471
0.0399475
0.0308652
0.0182904
0.00868207
0.000980236
-0.00385308
-0.00686523
-0.008533
-0.00934688
-0.0096215
0.0361456
0.0361451
0.0358963
0.0352651
0.0347035
0.0342197
0.0340775
0.0343102
0.0350997
0.0358525
0.0343319
0.027704
0.0189052
0.0121479
0.00681611
0.00336101
0.00116622
-7.07283e-05
-0.000662834
-0.000856028
0.0352546
0.0352462
0.0350205
0.0344408
0.0338426
0.0332555
0.0328069
0.0324693
0.0322856
0.0317293
0.0294322
0.024337
0.0181642
0.0134083
0.0097122
0.00724569
0.00564975
0.00473714
0.004311
0.00417808
0.0325234
0.0325167
0.0323132
0.0317911
0.0311835
0.0305411
0.0299198
0.0293178
0.028691
0.027584
0.0251615
0.0211906
0.0167961
0.0133911
0.0107634
0.00896005
0.00777122
0.00708163
0.00676754
0.00670536
0.0286412
0.0286376
0.0284506
0.0279778
0.0273897
0.0267342
0.0260195
0.0252891
0.0244716
0.0232507
0.0210976
0.018069
0.0149326
0.0124751
0.0105762
0.00924292
0.00834756
0.0078185
0.00758563
0.00753983
0.0240087
0.0240086
0.0238471
0.0234451
0.022922
0.0223224
0.0216223
0.0208789
0.0200126
0.0188548
0.017087
0.0148377
0.0126186
0.0108646
0.00950729
0.00853968
0.0078818
0.00748847
0.00732151
0.00728836
0.0189454
0.0189468
0.0188233
0.0185081
0.018092
0.0176013
0.0170089
0.0163649
0.0155714
0.0145675
0.013173
0.0115422
0.0100035
0.00878931
0.00784823
0.00717161
0.00670949
0.00643088
0.00631784
0.00629206
0.0136748
0.0136792
0.0135952
0.0133656
0.013068
0.0127029
0.0122663
0.0117872
0.011166
0.0104029
0.00938315
0.00825891
0.00723504
0.0064347
0.00581499
0.00536901
0.00506404
0.00487915
0.0048081
0.00479114
0.00827387
0.00827937
0.00823648
0.00809128
0.00790817
0.00767124
0.00740148
0.00711558
0.00671647
0.00625853
0.00563842
0.00498185
0.00438725
0.00392964
0.00356737
0.00329912
0.00311669
0.00300781
0.00297268
0.00296348
0.0028076
0.00281217
0.00280953
0.00274497
0.00267571
0.00257731
0.00247371
0.00239379
0.00223073
0.00209762
0.00188017
0.00167067
0.00146386
0.00131901
0.00119158
0.001089
0.00101408
0.000967422
0.000960576
0.000960553
-1.58581
-0.67889
-0.403269
-0.107656
0.0933374
0.267986
0.416065
0.56649
0.726303
0.803512
-0.54802
-0.110155
-0.0766614
0.123207
0.264415
0.390797
0.501234
0.598016
0.631654
0.586227
-0.130394
0.10122
0.150449
0.292803
0.391291
0.481005
0.555266
0.610469
0.616376
0.627712
0.122683
0.280721
0.318023
0.430859
0.493116
0.557552
0.606942
0.641704
0.652491
0.675259
0.318474
0.427382
0.456728
0.535429
0.580444
0.626435
0.661285
0.686899
0.69787
0.728595
0.468788
0.544282
0.574734
0.62358
0.661188
0.693834
0.719879
0.741251
0.756285
0.783914
0.594389
0.648335
0.674957
0.705608
0.735127
0.760246
0.781255
0.800949
0.816294
0.84242
0.701923
0.741182
0.763129
0.784993
0.807115
0.827399
0.845317
0.863733
0.87883
0.902384
0.798703
0.828184
0.845787
0.861767
0.878683
0.895267
0.911128
0.928362
0.942007
0.964306
0.888374
0.909508
0.924884
0.938475
0.952462
0.966578
0.980214
0.9949
1.00643
1.0261
0.975152
0.991127
1.00522
1.01733
1.0295
1.04125
1.05243
1.06412
1.07178
1.08859
1.06095
1.07396
1.08782
1.09957
1.11018
1.11995
1.12872
1.13697
1.14058
1.15187
1.15048
1.16147
1.17498
1.18419
1.19162
1.19879
1.20601
1.21265
1.21365
1.22106
1.249
1.25373
1.26176
1.26624
1.26952
1.274
1.28001
1.28778
1.29159
1.30147
1.36235
1.34863
1.34118
1.33552
1.33282
1.33422
1.34076
1.35319
1.36791
1.39756
1.48312
1.4275
1.3966
1.37952
1.3714
1.37142
1.38005
1.39947
1.43155
1.50071
)
;

boundaryField
{
    wall-4
    {
        type            zeroGradient;
    }
    pressure-outlet-7
    {
        type            fixedValue;
        value           uniform 0;
    }
    velocity-inlet-6
    {
        type            zeroGradient;
    }
    velocity-inlet-5
    {
        type            zeroGradient;
    }
    frontAndBackPlanes
    {
        type            empty;
    }
}


// ************************************************************************* //
