/*--------------------------------*- C++ -*----------------------------------*\
| =========                 |                                                 |
| \\      /  F ield         | OpenFOAM: The Open Source CFD Toolbox           |
|  \\    /   O peration     | Version:  v2012                                 |
|   \\  /    A nd           | Website:  www.openfoam.com                      |
|    \\/     M anipulation  |                                                 |
\*---------------------------------------------------------------------------*/
FoamFile
{
    version     2.0;
    format      ascii;
    class       surfaceScalarField;
    location    "19";
    object      phi;
}
// * * * * * * * * * * * * * * * * * * * * * * * * * * * * * * * * * * * * * //

dimensions      [0 3 -1 0 0 0 0];
oriented        oriented;


internalField   nonuniform List<scalar> 
4262
(
0.107126
0.470862
0.0955994
0.705112
0.0694646
0.858438
0.0476147
1.02061
0.0314574
1.21467
0.020256
1.44942
0.0125769
1.73354
0.00711636
2.0765
0.00318611
2.48917
-0.000150109
2.98563
-0.00354222
2.98568
-0.007485
2.48919
-0.012969
2.07652
-0.0206174
1.73351
-0.0317519
1.44935
-0.0478564
1.21462
-0.069644
1.02055
-0.0957003
0.858359
-0.107186
0.705071
0.470803
0.112634
0.358228
0.134911
0.682835
0.119738
0.873611
0.0967786
1.04357
0.0733501
1.2381
0.0518499
1.47092
0.0338824
1.75151
0.0200248
2.09035
0.00893502
2.50026
-0.000772811
2.99534
-0.0105037
2.99542
-0.0214885
2.50017
-0.0351347
2.09017
-0.052884
1.75126
-0.0742001
1.47067
-0.097437
1.23786
-0.120263
1.04338
-0.135297
0.873394
-0.112834
0.682608
0.357969
0.091762
0.266466
0.124362
0.650235
0.120348
0.877624
0.103726
1.0602
0.0845905
1.25724
0.0653944
1.49012
0.0470009
1.7699
0.0299317
2.10742
0.0143177
2.51588
-0.00133365
3.01099
-0.0168298
3.01091
-0.0321498
2.51549
-0.0489014
2.10692
-0.0669503
1.76931
-0.0858473
1.48957
-0.104766
1.25678
-0.121159
1.05977
-0.124997
0.877233
-0.0920714
0.649682
0.265897
0.0634851
0.202981
0.104044
0.609676
0.10601
0.875658
0.0950167
1.07119
0.0809123
1.27134
0.0662091
1.50482
0.0500173
1.7861
0.0331036
2.12434
0.0160368
2.53294
-0.00190891
3.02893
-0.019621
3.02862
-0.0362228
2.53209
-0.0526548
2.12335
-0.0685493
1.7852
-0.0829993
1.50402
-0.0968236
1.2706
-0.107508
1.07045
-0.105061
0.874786
-0.0639148
0.608536
0.201982
0.0364404
0.166541
0.0781803
0.567936
0.0881477
0.865691
0.0817411
1.0776
0.0704622
1.28262
0.0588017
1.51648
0.0462171
1.79868
0.0318675
2.13869
0.0155887
2.54922
-0.00264588
3.04717
-0.0206799
3.04666
-0.0365402
2.54795
-0.0504235
2.13723
-0.0624196
1.7972
-0.0733755
1.51497
-0.0840557
1.28128
-0.0898743
1.07627
-0.0793157
0.864227
-0.036857
0.566077
0.165125
0.0183121
0.148229
0.0537735
0.532475
0.067488
0.851976
0.0652473
1.07984
0.0575078
1.29036
0.0480063
1.52598
0.0378347
1.80885
0.0264009
2.15012
0.0128352
2.56279
-0.00327671
3.06328
-0.0191568
3.06254
-0.0322064
2.561
-0.0427671
2.14779
-0.0520718
1.80651
-0.0609664
1.52387
-0.0681174
1.28843
-0.0697274
1.07788
-0.055176
0.849676
-0.01877
0.529671
0.146355
0.00947432
0.138754
0.0391866
0.502763
0.0538581
0.837305
0.0533864
1.08031
0.0472774
1.29647
0.0389416
1.53432
0.0298528
1.81794
0.0196549
2.16032
0.00848731
2.57396
-0.0042109
3.07598
-0.0165279
3.07485
-0.0269012
2.57138
-0.0361309
2.15702
-0.0443966
1.81477
-0.0519268
1.5314
-0.0572169
1.29372
-0.0568641
1.07753
-0.0410405
0.833852
-0.0100681
0.498699
0.136287
0.00493081
0.133823
0.0280368
0.479656
0.0427667
0.822575
0.0439244
1.07915
0.039182
1.30121
0.0319954
1.5415
0.0237658
1.82617
0.0149412
2.16914
0.00544057
2.58346
-0.00537686
3.0868
-0.0157336
3.08521
-0.0243341
2.57998
-0.0320789
2.16477
-0.038928
1.82162
-0.0449768
1.53745
-0.0486068
1.29735
-0.0462344
1.07516
-0.0300325
0.81765
-0.00561214
0.474279
0.130675
0.0016614
0.132162
0.0159339
0.465384
0.0283657
0.810143
0.031054
1.07646
0.0284754
1.30379
0.0238202
1.54616
0.0181742
1.83182
0.0112405
2.17608
0.00294121
2.59176
-0.00695072
3.09669
-0.0163078
3.09457
-0.0233226
2.58699
-0.028793
2.17024
-0.0327353
1.82556
-0.0358978
1.54061
-0.036904
1.29836
-0.032567
1.07082
-0.0183516
0.803435
-0.00249914
0.458426
0.128176
-0.000412058
0.132574
0.00620344
0.458768
0.0150788
0.801268
0.0184267
1.07311
0.0178584
1.30436
0.0153214
1.5487
0.0120076
1.83513
0.00697463
2.18111
3.1776e-05
2.5987
-0.00865528
3.10537
-0.0165839
3.1025
-0.0215743
2.59198
-0.0243518
2.17302
-0.0261521
1.82736
-0.0265331
1.54099
-0.0252081
1.29703
-0.0199288
1.06554
-0.00910128
0.792608
-0.000619806
0.449945
0.127556
-0.000770706
0.133345
0.00168926
0.456309
0.00724228
0.795715
0.0103177
1.07004
0.0108117
1.30386
0.00953177
1.54998
0.00675228
1.83791
0.00262639
2.18524
-0.00316519
2.60449
-0.0103826
3.11259
-0.016755
3.10887
-0.0206952
2.59592
-0.0229693
2.17529
-0.0232991
1.82769
-0.0219612
1.53965
-0.0191591
1.29423
-0.0136553
1.06004
-0.00538652
0.784339
-0.000503399
0.445062
0.127053
-0.000619509
0.133964
-4.18058e-05
0.455731
0.00375943
0.791914
0.0066817
1.06712
0.00769719
1.30285
0.00712483
1.55055
0.004338
1.8407
-0.000276053
2.18985
-0.00653268
2.61075
-0.0136454
3.1197
-0.0195753
3.1148
-0.0233313
2.59968
-0.0245205
2.17648
-0.023464
1.82664
-0.0214335
1.53762
-0.017496
1.29029
-0.0117239
1.05426
-0.00480601
0.777421
-0.0010002
0.441256
0.126052
-0.000965728
0.13493
-0.0014915
0.456257
0.000940607
0.789481
0.00355461
1.0645
0.00523004
1.30117
0.00495813
1.55082
0.00236648
1.84329
-0.00248842
2.1947
-0.0092575
2.61752
-0.0169878
3.12743
-0.0233339
3.12115
-0.0268572
2.6032
-0.0272037
2.17683
-0.0258064
1.82524
-0.022615
1.53443
-0.0172827
1.28496
-0.0107216
1.0477
-0.00444642
0.771146
-0.00116008
0.437969
0.124892
-0.00152761
0.136458
-0.00324953
0.457979
-0.0023452
0.788577
0.000565174
1.06159
0.00250812
1.29923
0.00206716
1.55126
-0.000915837
1.84627
-0.00625105
2.20004
-0.0134156
2.62468
-0.0213218
3.13534
-0.027528
3.12735
-0.0305304
2.6062
-0.0307517
2.17705
-0.0286043
1.82309
-0.023562
1.52939
-0.0168238
1.27822
-0.0096102
1.04049
-0.00386781
0.765403
-0.00102412
0.435126
0.123868
-0.00197296
0.138431
-0.00478483
0.46079
-0.00551445
0.789307
-0.00375988
1.05984
-0.00218829
1.29766
-0.00266076
1.55173
-0.00583367
1.84944
-0.0113717
2.20558
-0.0186417
2.63195
-0.0263925
3.14309
-0.0319731
3.13293
-0.0342767
2.60851
-0.0337822
2.17655
-0.0308936
1.8202
-0.0252619
1.52376
-0.0179724
1.27093
-0.0103718
1.03289
-0.00458381
0.759615
-0.00137488
0.431917
0.122493
-0.00218094
0.140612
-0.00595131
0.464561
-0.00765934
0.791015
-0.00717068
1.05935
-0.00669314
1.29718
-0.00829092
1.55333
-0.0124979
1.85365
-0.0186923
2.21177
-0.026167
2.63943
-0.033563
3.15049
-0.038116
3.13749
-0.0391731
2.60956
-0.037324
2.1747
-0.0330312
1.81591
-0.0265253
1.51725
-0.0188143
1.26322
-0.0112957
1.02537
-0.00559984
0.753919
-0.00184895
0.428166
0.120644
-0.00282132
0.143433
-0.00774189
0.469481
-0.0109105
0.794183
-0.0121116
1.06055
-0.0130765
1.29815
-0.0156078
1.55586
-0.0203711
1.85841
-0.0270948
2.2185
-0.0348097
2.64714
-0.0418351
3.15751
-0.0452668
3.14092
-0.0447244
2.60902
-0.0415317
2.17151
-0.03611
1.81049
-0.0291355
1.51028
-0.0213295
1.25542
-0.0136667
1.01771
-0.00726393
0.747517
-0.00243953
0.423341
0.118205
-0.00337542
0.146808
-0.00931921
0.475425
-0.0141206
0.798985
-0.0171849
1.06361
-0.0204093
1.30137
-0.0250077
1.56046
-0.0312359
1.86464
-0.0386809
2.22594
-0.0463752
2.65483
-0.0525332
3.16367
-0.0542589
3.14264
-0.0517109
2.60647
-0.0465931
2.16639
-0.0395003
1.8034
-0.0313455
1.50212
-0.0228839
1.24696
-0.0150115
1.00984
-0.0083224
0.740827
-0.00286185
0.417881
0.115343
-0.00470248
0.151511
-0.0130218
0.483744
-0.0203192
0.806282
-0.0254808
1.06878
-0.0302928
1.30618
-0.0363233
1.56649
-0.043788
1.87211
-0.0521217
2.23427
-0.0600171
2.66273
-0.0651706
3.16882
-0.0648469
3.14232
-0.0599916
2.60162
-0.0527384
2.15914
-0.0442549
1.79491
-0.0354525
1.49332
-0.026847
1.23835
-0.0185141
1.0015
-0.010506
0.732819
-0.00355283
0.410928
0.11179
-0.00572376
0.157235
-0.0156403
0.493661
-0.0247992
0.815441
-0.0326587
1.07664
-0.0407514
1.31428
-0.0497332
1.57547
-0.0595209
1.88189
-0.0694361
2.24419
-0.0778121
2.67111
-0.0819272
3.17294
-0.0792885
3.13968
-0.0720055
2.59434
-0.0624726
2.14961
-0.0520299
1.78447
-0.0414221
1.48271
-0.0311492
1.22808
-0.0214804
0.991834
-0.0123513
0.72369
-0.00423921
0.402816
0.107551
-0.00814239
0.165377
-0.0220599
0.507579
-0.0345205
0.827902
-0.0447274
1.08684
-0.0547788
1.32433
-0.0661211
1.58682
-0.078267
1.89404
-0.0898302
2.25575
-0.0986284
2.6799
-0.101498
3.17581
-0.0961623
3.13434
-0.0858841
2.58406
-0.0735148
2.13724
-0.0608208
1.77178
-0.0489405
1.47083
-0.0380367
1.21717
-0.0272427
0.98104
-0.0158163
0.712264
-0.0053293
0.392329
0.102222
-0.00996628
0.175343
-0.0265664
0.524179
-0.0424282
0.843763
-0.0567039
1.10112
-0.0714709
1.33909
-0.0868364
1.60218
-0.102118
1.90932
-0.115802
2.26944
-0.125236
2.68934
-0.126709
3.17728
-0.118489
3.12612
-0.105145
2.57071
-0.0899506
2.12204
-0.0746448
1.75647
-0.0598454
1.45603
-0.0457673
1.20309
-0.0321026
0.967375
-0.018514
0.698675
-0.0062507
0.380065
0.095971
-0.0149815
0.190325
-0.0383402
0.547537
-0.058833
0.864256
-0.0766852
1.11897
-0.0947851
1.35719
-0.113794
1.62119
-0.132453
1.92798
-0.148063
2.28505
-0.157466
2.69874
-0.156825
3.17664
-0.144939
3.11424
-0.127582
2.55336
-0.108372
2.10283
-0.0894922
1.73759
-0.0722064
1.43875
-0.0564105
1.1873
-0.0406593
0.951624
-0.0235989
0.681615
-0.00775411
0.364221
0.0882169
-0.0190505
0.209375
-0.0490975
0.577584
-0.0770606
0.892219
-0.101087
1.143
-0.125863
1.38197
-0.150174
1.6455
-0.172087
1.94989
-0.18892
2.30188
-0.197467
2.70729
-0.193693
3.17287
-0.177194
3.09774
-0.155442
2.5316
-0.132601
2.07999
-0.110512
1.7155
-0.0896441
1.41788
-0.0696451
1.1673
-0.0491642
0.931143
-0.0278607
0.660311
-0.00886214
0.345222
0.0793547
-0.0334671
0.242842
-0.0748107
0.618928
-0.109521
0.926929
-0.14005
1.17353
-0.170843
1.41276
-0.198896
1.67356
-0.222544
1.97354
-0.239155
2.31849
-0.245272
2.71341
-0.236916
3.16451
-0.215114
3.07594
-0.188397
2.50489
-0.160612
2.05221
-0.13383
1.68872
-0.10892
1.39297
-0.0853472
1.14373
-0.0613371
0.907133
-0.0355112
0.634485
-0.01096
0.320671
0.0683947
-0.0465265
0.289369
-0.110759
0.683161
-0.160084
0.976255
-0.199187
1.21263
-0.235018
1.44859
-0.264972
1.70351
-0.288307
1.99688
-0.302128
2.33231
-0.303212
2.71449
-0.288045
3.14934
-0.259305
3.0472
-0.2268
2.47238
-0.194435
2.01984
-0.163841
1.65812
-0.13547
1.3646
-0.108003
1.11626
-0.0778227
0.876952
-0.041993
0.598656
-0.0115579
0.290236
0.0568368
-0.0305492
0.319918
-0.0838478
0.736459
-0.131696
1.0241
-0.175596
1.25653
-0.216642
1.48964
-0.255469
1.74234
-0.290538
2.03194
-0.318841
2.36062
-0.336346
2.73199
-0.336361
3.14936
-0.315747
3.02658
-0.283244
2.43988
-0.244294
1.98089
-0.202413
1.61624
-0.159454
1.32164
-0.116109
1.07292
-0.0719233
0.832766
-0.0319584
0.558691
-0.00675627
0.265034
0.0500806
-0.00680943
0.326727
-0.0336077
0.763257
-0.0694703
1.05996
-0.106895
1.29395
-0.144021
1.52677
-0.179203
1.77752
-0.210641
2.06338
-0.235691
2.38567
-0.250029
2.74633
-0.247413
3.14674
-0.22479
3.00396
-0.190401
2.40549
-0.151159
1.94165
-0.111263
1.57635
-0.072796
1.28317
-0.0374577
1.03758
-0.00905747
0.804366
0.00669212
0.542941
0.00606053
0.265665
0.0561411
0.00400729
0.32272
-0.0130453
0.78031
-0.0393666
1.08629
-0.0692381
1.32383
-0.0996127
1.55714
-0.129632
1.80754
-0.157236
2.09099
-0.179301
2.40773
-0.191493
2.75852
-0.187508
3.14276
-0.165484
2.98194
-0.135126
2.37513
-0.101522
1.90804
-0.0679837
1.54281
-0.0371274
1.25232
-0.0105997
1.01105
0.00873341
0.785033
0.0145815
0.537093
0.00773617
0.272511
0.0638773
0.00481893
0.317901
-0.00479911
0.789928
-0.0247333
1.10622
-0.049068
1.34816
-0.073655
1.58173
-0.099018
1.8329
-0.122841
2.11481
-0.14199
2.42688
-0.152303
2.76884
-0.148284
3.13874
-0.129373
2.96303
-0.103336
2.3491
-0.0757264
1.88043
-0.0490175
1.5161
-0.024489
1.22779
-0.00335093
0.989911
0.0106062
0.771076
0.0135036
0.534196
0.00604609
0.279968
0.0699233
0.00679453
0.311107
5.25947e-05
0.79667
-0.0176137
1.12389
-0.0378379
1.36838
-0.0587963
1.60268
-0.0807303
1.85484
-0.101495
2.13557
-0.118515
2.4439
-0.128258
2.77858
-0.126237
3.13672
-0.110485
2.94727
-0.088279
2.32689
-0.0647044
1.85686
-0.0419192
1.49332
-0.0209824
1.20685
-0.00396231
0.972891
0.00668682
0.760426
0.00806511
0.532818
0.00325399
0.284779
0.0731773
0.00641072
0.304696
0.00172586
0.801355
-0.0134872
1.1391
-0.031688
1.38659
-0.0506373
1.62163
-0.0701546
1.87435
-0.0888665
2.15429
-0.104681
2.45971
-0.114261
2.78816
-0.11249
3.13495
-0.0985443
2.93333
-0.0799447
2.30829
-0.0598543
1.83677
-0.0401101
1.47357
-0.0227887
1.18953
-0.00912925
0.959231
-0.000164636
0.751462
0.00252922
0.530124
0.000999984
0.286308
0.0741773
0.00456665
0.300129
0.00153936
0.804382
-0.0117931
1.15243
-0.0286155
1.40341
-0.0464452
1.63946
-0.0644886
1.8924
-0.0818884
2.17169
-0.0969117
2.47474
-0.10632
2.79757
-0.106248
3.13487
-0.0947653
2.92185
-0.0769368
2.29046
-0.0582238
1.81806
-0.0415294
1.45688
-0.0264751
1.17448
-0.0143743
0.947131
-0.00708995
0.744178
-0.00352082
0.526555
-0.000923702
0.283711
0.0732536
0.00272199
0.297407
0.000367744
0.806736
-0.0115834
1.16438
-0.0272985
1.41912
-0.0442961
1.65646
-0.0615211
1.90962
-0.0781996
2.18836
-0.092861
2.4894
-0.102706
2.80741
-0.103728
3.1359
-0.0929559
2.91107
-0.0774809
2.27499
-0.0610935
1.80167
-0.04516
1.44094
-0.0314938
1.16081
-0.0206102
0.936247
-0.0119883
0.735556
-0.00642109
0.520987
-0.00200297
0.279293
0.0712506
0.000239609
0.297168
-0.00226685
0.809243
-0.012843
1.17496
-0.0272004
1.43348
-0.0432679
1.67253
-0.0599658
1.92632
-0.0764211
2.20482
-0.0912594
2.50424
-0.102159
2.81831
-0.104935
3.13867
-0.0967966
2.90294
-0.0824605
2.26065
-0.0660403
1.78525
-0.0509124
1.42582
-0.0374587
1.14736
-0.0257779
0.924566
-0.0164233
0.726201
-0.00859207
0.513156
-0.00261393
0.273315
0.0686367
-0.000546958
0.297715
-0.00520284
0.813899
-0.0147361
1.18449
-0.0279269
1.44667
-0.0429405
1.68754
-0.0591052
1.94248
-0.0755864
2.2213
-0.0908971
2.51955
-0.102759
2.83018
-0.106988
3.1429
-0.0999919
2.89594
-0.0862407
2.2469
-0.0707773
1.76979
-0.0545272
1.40957
-0.0403854
1.13321
-0.028026
0.912207
-0.0179661
0.716141
-0.00995428
0.505144
-0.00317325
0.266534
0.0654635
-0.00266608
0.300381
-0.00764573
0.818878
-0.0168326
1.19368
-0.0288958
1.45873
-0.0430387
1.70169
-0.0587184
1.95816
-0.075251
2.23783
-0.0912312
2.53553
-0.10472
2.84366
-0.112044
3.15023
-0.107463
2.89136
-0.0943513
2.23379
-0.077635
1.75307
-0.0628152
1.39475
-0.0481174
1.11852
-0.0355861
0.899676
-0.0238721
0.704427
-0.0120246
0.493297
-0.00377102
0.25828
0.0616924
-0.00398156
0.304362
-0.00926639
0.824163
-0.0182451
1.20266
-0.029856
1.47035
-0.0433685
1.7152
-0.0585853
1.97338
-0.0751264
2.25437
-0.0918393
2.55224
-0.106772
2.8586
-0.115594
3.15905
-0.112682
2.88845
-0.101093
2.2222
-0.0852058
1.73718
-0.0665194
1.37606
-0.0509191
1.10292
-0.0363513
0.885108
-0.0235359
0.691612
-0.013296
0.483057
-0.00425152
0.249236
0.0574409
-0.00437983
0.308742
-0.0102779
0.830061
-0.0191439
1.21152
-0.0304926
1.48169
-0.0436512
1.72836
-0.0585618
1.98829
-0.0750993
2.27091
-0.0924117
2.56955
-0.108835
2.87502
-0.120685
3.1709
-0.121934
2.8897
-0.111324
2.21159
-0.0933407
1.7192
-0.0756265
1.35834
-0.0590449
1.08633
-0.0447972
0.87086
-0.0309663
0.677781
-0.0156999
0.467791
-0.00483979
0.238376
0.0526011
-0.00432314
0.313065
-0.0106744
0.836412
-0.0195412
1.22039
-0.0306776
1.49283
-0.043629
1.74131
-0.0583284
2.00299
-0.0748413
2.28743
-0.0925911
2.5873
-0.110207
2.89264
-0.124141
3.18483
-0.126975
2.89253
-0.119132
2.20375
-0.104985
1.70505
-0.0849512
1.33831
-0.0637825
1.06517
-0.04457
0.851648
-0.0287464
0.661957
-0.0159227
0.454967
-0.0048704
0.227323
0.0477307
-0.00429228
0.317358
-0.0110087
0.843129
-0.0197128
1.2291
-0.0305317
1.50365
-0.0432504
1.75403
-0.057765
2.01751
-0.0742564
2.30392
-0.0924689
2.60552
-0.11149
2.91166
-0.128529
3.20187
-0.135783
2.89978
-0.129237
2.1972
-0.111633
1.68745
-0.0910877
1.31777
-0.0701187
1.0442
-0.05311
0.834639
-0.0363599
0.645207
-0.0181548
0.436762
-0.00484853
0.214017
0.0428822
-0.00425957
0.321617
-0.0109811
0.84985
-0.019481
1.2376
-0.0299922
1.51416
-0.0424327
1.76647
-0.0567687
2.03184
-0.0732757
2.32042
-0.0919116
2.62415
-0.111943
2.93169
-0.130784
3.22071
-0.140289
2.90929
-0.136306
2.19322
-0.12446
1.6756
-0.103059
1.29636
-0.0783192
1.01946
-0.0506521
0.806972
-0.0291352
0.62369
-0.0148446
0.422471
-0.00364463
0.202817
0.0392376
-0.00427264
0.32589
-0.0110259
0.856604
-0.0192014
1.24577
-0.0293105
1.52427
-0.0413758
1.77853
-0.0554558
2.04592
-0.0718944
2.33686
-0.0907952
2.64305
-0.111676
2.95257
-0.132534
3.24157
-0.146049
2.9228
-0.146748
2.19391
-0.13345
1.6623
-0.112554
1.27547
-0.0851146
0.992017
-0.0585071
0.780364
-0.0337363
0.59892
-0.0130233
0.401758
-0.00282644
0.19262
0.0364111
-0.00417342
0.330063
-0.010715
0.863145
-0.0186276
1.25368
-0.0283842
1.53403
-0.0400465
1.79019
-0.0538096
2.05968
-0.0700993
2.35315
-0.089131
2.66208
-0.110801
2.97424
-0.133956
3.26473
-0.151196
2.94004
-0.155793
2.19851
-0.148392
1.6549
-0.127673
1.25475
-0.0967647
0.961109
-0.0551001
0.7387
-0.0140702
0.55789
0.0120862
0.375602
0.0179582
0.186748
0.0543694
-0.0040247
0.334088
-0.0104719
0.869592
-0.0180521
1.26126
-0.0273926
1.54337
-0.0386178
1.80142
-0.0519942
2.07306
-0.0680242
2.36918
-0.0870838
2.68114
-0.109327
2.99648
-0.133822
3.28922
-0.153288
2.95951
-0.16267
2.20789
-0.156582
1.64882
-0.138843
1.23701
-0.107449
0.929715
-0.0679641
0.699215
-0.0132092
0.503135
0.0240762
0.338316
0.0132444
0.19758
0.0676138
-0.00377435
0.337862
-0.00993372
0.875752
-0.0172452
1.26858
-0.0262059
1.55233
-0.0370306
1.81224
-0.0499861
2.08602
-0.065696
2.38489
-0.0846331
2.70008
-0.107161
3.01901
-0.133145
3.31521
-0.155489
2.98185
-0.167745
2.22015
-0.171531
1.6526
-0.158585
1.22406
-0.130231
0.901361
-0.0733439
0.642328
0.0217453
0.408046
0.132208
0.227854
0.160223
0.169565
0.227837
-0.00357576
0.341438
-0.00969433
0.88187
-0.0168779
1.27576
-0.0257486
1.5612
-0.0366678
1.82316
-0.0499515
2.0993
-0.066398
2.40134
-0.0867815
2.72046
-0.112025
3.04425
-0.142795
3.34598
-0.171848
3.01091
-0.192285
2.24059
-0.196837
1.65715
-0.187988
1.21522
-0.163415
0.876787
-0.134684
0.613598
-0.153809
0.42717
-0.371449
0.445494
-0.911151
0.709266
0.887531
-1.57085
-0.00334489
0.344783
-0.00916425
0.88769
-0.0161591
1.28275
-0.0248379
1.56988
-0.0355931
1.83392
-0.0488758
2.11258
-0.0656028
2.41807
-0.0867206
2.74158
-0.113406
3.07094
-0.146504
3.37907
-0.178551
3.04295
-0.204391
2.26643
-0.231291
1.68405
-0.24407
1.228
-0.250963
0.88368
-0.327348
0.689982
-0.682048
0.78187
-1.38121
1.14466
-1.99896
1.32702
1.22331
-2.33474
-0.00316468
0.347948
-0.00872059
0.893246
-0.0154338
1.28947
-0.0238482
1.57829
-0.0344162
1.84449
-0.0476657
2.12583
-0.0645719
2.43497
-0.0863333
2.76334
-0.114772
3.09938
-0.15285
3.41715
-0.194926
3.08503
-0.231063
2.30256
-0.256707
1.7097
-0.273301
1.24459
-0.361452
0.971831
-0.734472
1.063
-1.48098
1.52837
-2.07383
1.73751
-2.3224
1.5756
1.34202
-2.44112
-0.00288118
0.350829
-0.00806778
0.898432
-0.0145193
1.29592
-0.0226841
1.58646
-0.0330231
1.85483
-0.0461963
2.13901
-0.0632602
2.45204
-0.0856625
2.78575
-0.115501
3.12922
-0.155186
3.45684
-0.198515
3.12836
-0.239884
2.34393
-0.289059
1.75887
-0.385123
1.34065
-0.693425
1.28013
-1.39128
1.76086
-1.99694
2.13403
-2.2451
1.98567
-2.36332
1.69381
1.41016
-2.43146
-0.00262869
0.353457
-0.007477
0.903281
-0.0135806
1.30202
-0.0214175
1.59429
-0.0315576
1.86497
-0.0446087
2.15206
-0.0617268
2.46915
-0.0845395
2.80856
-0.115643
3.16032
-0.160056
3.50125
-0.214979
3.18328
-0.271631
2.40059
-0.32702
1.81426
-0.492294
1.50593
-1.04725
1.83509
-1.74145
2.45505
-2.08531
2.47789
-2.24284
2.1432
-2.32975
1.78073
1.47791
-2.3975
-0.00244673
0.355904
-0.00710601
0.90794
-0.0131884
1.3081
-0.0210428
1.60215
-0.0313483
1.87527
-0.0445534
2.16526
-0.0620415
2.48664
-0.0856373
2.83215
-0.118337
3.19302
-0.164661
3.54757
-0.221093
3.23971
-0.27764
2.45713
-0.374216
1.91084
-0.733253
1.86496
-1.44143
2.54327
-1.94114
2.95476
-2.1506
2.68736
-2.26176
2.25436
-2.3409
1.85987
1.54427
-2.40726
-0.00242603
0.35833
-0.00731287
0.912827
-0.0136651
1.31446
-0.0218588
1.61034
-0.0325981
1.88601
-0.0463393
2.179
-0.064555
2.50486
-0.0891274
2.85673
-0.123209
3.2271
-0.173508
3.59787
-0.237299
3.3035
-0.31044
2.53027
-0.489994
2.09039
-0.996339
2.37131
-1.6312
3.17812
-1.93279
3.25636
-2.08772
2.84228
-2.20765
2.3743
-2.30415
1.95637
1.61017
-2.37006
-0.00228968
0.36062
-0.00727719
0.917814
-0.0140123
1.32119
-0.022654
1.61898
-0.0338261
1.89718
-0.0481133
2.19329
-0.0669789
2.52372
-0.0925411
2.88229
-0.128527
3.26309
-0.181254
3.6506
-0.248985
3.37123
-0.339165
2.62045
-0.599506
2.35073
-1.20685
2.97865
-1.72048
3.69176
-1.93771
3.47359
-2.08808
2.99265
-2.22294
2.50916
-2.34378
2.07721
1.67451
-2.40812
-0.0021546
0.362774
-0.00741031
0.92307
-0.014464
1.32825
-0.0235014
1.62802
-0.0351316
1.90881
-0.0499759
2.20813
-0.0696151
2.54336
-0.0962762
2.90895
-0.133365
3.30017
-0.188038
3.70527
-0.258967
3.44216
-0.38117
2.74266
-0.728482
2.69804
-1.34653
3.5967
-1.7323
4.07752
-1.92006
3.66135
-2.03598
3.10857
-2.1393
2.61248
-2.21703
2.15494
1.67087
-2.21339
-0.00184203
0.364616
-0.00710309
0.928331
-0.0145869
1.33573
-0.0241462
1.63758
-0.0362808
1.92095
-0.0517004
2.22355
-0.0719391
2.5636
-0.0993138
2.93632
-0.138069
3.33893
-0.196116
3.76332
-0.278178
3.52423
-0.431988
2.89647
-0.845114
3.11117
-1.40524
4.15682
-1.68966
4.36194
-1.86523
3.83691
-1.97283
3.21618
-1.98519
2.62485
-1.93631
2.10605
1.66579
-1.93123
-0.00160299
0.366219
-0.00705896
0.933787
-0.0147733
1.34344
-0.0246466
1.64745
-0.0371097
1.93341
-0.0527815
2.23923
-0.0732642
2.58408
-0.100966
2.96403
-0.139719
3.37768
-0.194895
3.8185
-0.27421
3.60354
-0.459802
3.08206
-0.905107
3.55647
-1.36715
4.61886
-1.56239
4.55718
-1.6475
3.92203
-1.66563
3.23431
-1.53195
2.49116
-1.04554
1.61965
0.620247
-0.00102322
0.367243
-0.0061812
0.938945
-0.0143676
1.35163
-0.0249269
1.65801
-0.0382232
1.94671
-0.0549644
2.25597
-0.0768959
2.60602
-0.106459
2.99359
-0.148032
3.41926
-0.210219
3.88068
-0.309852
3.70317
-0.53493
3.30714
-1.02945
4.05099
-1.42241
5.01183
-1.53824
4.67301
-1.54952
3.93331
-1.46571
3.15051
-1.24016
2.26561
-0.670318
1.0498
-0.050071
-0.000583206
0.367826
-0.00555228
0.943914
-0.0138732
1.35995
-0.0249433
1.66908
-0.0389082
1.96067
-0.0565883
2.27365
-0.079797
2.62922
-0.111278
3.02507
-0.156549
3.46453
-0.222984
3.94712
-0.330757
3.81095
-0.600412
3.57679
-1.12591
4.57649
-1.43446
5.32039
-1.51514
4.75368
-1.50932
3.92749
-1.32075
2.96193
-0.827964
1.77282
-0.132105
0.353943
-0.182176
0.00048901
0.367337
-0.00360684
0.94801
-0.0123391
1.36868
-0.0241362
1.68088
-0.03878
1.97532
-0.0573943
2.29226
-0.0820106
2.65384
-0.115686
3.05875
-0.163645
3.51249
-0.235589
4.01906
-0.364526
3.93989
-0.681931
3.8942
-1.2019
5.09646
-1.41557
5.53405
-1.45579
4.7939
-1.39269
3.8644
-1.1146
2.68384
-0.372817
1.03104
0.0342827
-0.0531568
-0.147893
0.00158942
0.365747
-0.00159874
0.951198
-0.0106898
1.37777
-0.0227594
1.69295
-0.0377635
1.99032
-0.0571106
2.31161
-0.0826575
2.67939
-0.116989
3.09308
-0.165528
3.56102
-0.243058
4.09659
-0.387573
4.0844
-0.7421
4.24872
-1.22675
5.58111
-1.36821
5.67552
-1.38959
4.81528
-1.2437
3.71851
-0.777776
2.21792
-0.102925
0.356189
0.0372885
-0.19337
-0.110605
0.00321238
0.362535
0.0013863
0.953024
-0.00761803
1.38678
-0.0199864
1.70532
-0.0353264
2.00566
-0.0552131
2.3315
-0.0814938
2.70567
-0.117166
3.12875
-0.168311
3.61217
-0.253045
4.18133
-0.412457
4.24381
-0.802574
4.63884
-1.22147
6
-1.31576
5.7698
-1.2956
4.79512
-1.04107
3.46398
-0.43586
1.61271
-0.0259127
-0.0537583
0.00976135
-0.229044
-0.100843
0.00450241
0.358033
0.00376333
0.953763
-0.00401545
1.39456
-0.0159876
1.71729
-0.0312501
2.02092
-0.0514941
2.35174
-0.0782075
2.73238
-0.114294
3.16484
-0.164617
3.66249
-0.249129
4.26584
-0.421989
4.41667
-0.828438
5.04529
-1.15154
6.3231
-1.19961
5.81787
-1.13703
4.73254
-0.850471
3.17742
-0.210936
0.973175
-0.0342854
-0.230409
-0.0139989
-0.24933
-0.114842
0.00692204
0.351111
0.00832388
0.952361
0.00177247
1.40111
-0.00978777
1.72885
-0.0251198
2.03625
-0.0452118
2.37183
-0.071044
2.75821
-0.105548
3.19934
-0.153609
3.71055
-0.240832
4.35306
-0.422609
4.59845
-0.812432
5.43511
-1.059
6.56967
-1.11346
5.87233
-0.969601
4.58869
-0.567736
2.77555
-0.0294632
0.434902
0.0182141
-0.278086
0.0118874
-0.243004
-0.102955
0.00943999
0.341671
0.0136874
0.948114
0.00897713
1.40582
-0.000554841
1.73838
-0.0162555
2.05195
-0.0354273
2.391
-0.0600874
2.78287
-0.0945421
3.2338
-0.142576
3.75859
-0.225628
4.43611
-0.412755
4.78558
-0.750133
5.77249
-0.917137
6.73667
-0.946658
5.90185
-0.7726
4.41463
-0.286807
2.28976
0.0562509
0.091844
0.0346163
-0.256452
0.0284215
-0.236809
-0.0745334
0.0134016
0.328269
0.021611
0.939904
0.0188965
1.40853
0.00942286
1.74786
-0.00472582
2.0661
-0.0213871
2.40766
-0.0437438
2.80523
-0.075073
3.26512
-0.117865
3.80138
-0.187544
4.50579
-0.356984
4.95502
-0.614976
6.03048
-0.741409
6.86311
-0.796633
5.95707
-0.70598
4.32398
-0.31038
1.89416
-0.211168
-0.00736797
-0.143508
-0.324112
-0.0576477
-0.322669
-0.132181
0.0172624
0.311007
0.0302728
0.926894
0.0309981
1.40781
0.0239352
1.75492
0.0129181
2.07712
-0.0012966
2.42188
-0.0212793
2.82521
-0.0466892
3.29053
-0.0820463
3.83674
-0.132196
4.55594
-0.27469
5.09751
-0.448447
6.20424
-0.542966
6.95763
-0.630119
6.04423
-0.675551
4.36941
-0.606001
1.82461
-0.635545
0.0221757
-0.468475
-0.491181
-0.231605
-0.55954
-0.363786
0.0225296
0.288477
0.0419999
0.907424
0.047146
1.40266
0.0435762
1.75849
0.0349024
2.08579
0.0228774
2.4339
0.00808183
2.84001
-0.0113158
3.30993
-0.0385931
3.86401
-0.0662643
4.58361
-0.138088
5.16933
-0.192772
6.25892
-0.249816
7.01467
-0.306431
6.10084
-0.388411
4.45139
-0.549815
1.98602
-0.755402
0.227763
-0.618383
-0.6282
-0.322841
-0.855082
-0.686627
0.0274418
0.261035
0.0547851
0.88008
0.0665235
1.39092
0.0674482
1.75756
0.062492
2.09075
0.0560768
2.44032
0.0480515
2.84803
0.0364583
3.32153
0.020727
3.87974
0.0026214
4.60172
0.0476852
5.12427
0.147093
6.15952
0.226424
6.93534
0.336101
5.99117
0.342365
4.44512
0.0827037
2.24568
-0.255524
0.56599
-0.389418
-0.494306
-0.250203
-0.994297
-0.93683
0.033569
0.227466
0.0713403
0.842309
0.0907767
1.37149
0.0970347
1.75131
0.097543
2.09024
0.095921
2.44194
0.0942946
2.84966
0.0945994
3.32122
0.0938391
3.8805
0.122063
4.57349
0.229855
5.01648
0.619427
5.76994
0.958308
6.59646
1.33245
5.61702
1.48881
4.28877
1.15902
2.57547
0.747112
0.977894
0.303883
-0.0510765
0.0935155
-0.783929
-0.843315
0.0374776
0.189989
0.0872603
0.792526
0.117108
1.34164
0.130741
1.73767
0.138877
2.08211
0.14507
2.43575
0.153341
2.84139
0.167011
3.30755
0.186989
3.86053
0.259146
4.50134
0.444185
4.83144
1.0177
5.19643
1.4464
6.16776
1.77586
5.28755
1.91368
4.15095
1.67355
2.8156
1.22932
1.42213
0.817447
0.360792
0.352758
-0.31924
-0.490557
0.0410272
0.148961
0.105117
0.728437
0.148646
1.29811
0.172261
1.71406
0.189301
2.06507
0.202307
2.42274
0.21991
2.82379
0.243436
3.28402
0.285423
3.81854
0.36976
4.417
0.633346
4.56786
1.19418
4.63559
1.64047
5.72147
1.90984
5.01818
2.02347
4.03732
1.85098
2.98809
1.4232
1.84991
0.916148
0.867842
0.382861
0.214048
-0.107697
0.0407749
0.108186
0.119007
0.650204
0.17802
1.2391
0.214865
1.67721
0.243389
2.03654
0.26595
2.40018
0.295047
2.79469
0.328658
3.25041
0.371063
3.77613
0.409945
4.37812
0.606707
4.37109
1.06463
4.17767
1.50205
5.28405
1.66316
4.85707
1.70769
3.99278
1.5766
3.11918
1.23282
2.19369
0.7884
1.31226
0.338978
0.663471
0.231282
0.0386403
0.0695461
0.132783
0.556061
0.212687
1.15919
0.264423
1.62548
0.305854
1.99511
0.341619
2.36442
0.382401
2.75391
0.417447
3.21537
0.442355
3.75123
0.430378
4.3901
0.468836
4.33264
0.722121
3.92439
1.16667
4.8395
1.28451
4.73923
1.27951
3.99779
1.15996
3.23873
0.895974
2.45768
0.555114
1.65312
0.221835
0.99675
0.453116
0.0361958
0.0333503
0.14008
0.452177
0.242302
1.05697
0.318537
1.54924
0.378162
1.93549
0.431765
2.31081
0.486736
2.69894
0.524979
3.17713
0.568249
3.70796
0.562498
4.39585
0.497043
4.39809
0.506496
3.91494
0.852489
4.49351
0.94627
4.64545
0.891612
4.05245
0.770996
3.35935
0.577895
2.65078
0.33565
1.89537
0.119478
1.21292
0.572594
0.0322822
0.00106808
0.136257
0.348203
0.259957
0.933271
0.365493
1.44371
0.451705
1.84928
0.534341
2.22818
0.615456
2.61782
0.697923
3.09466
0.80713
3.59875
0.862596
4.34038
0.759291
4.5014
0.648881
4.02535
0.80158
4.34081
0.836233
4.61079
0.735374
4.15331
0.602935
3.49179
0.44876
2.80495
0.251038
2.09309
0.0779235
1.38604
0.650518
0.020086
-0.0190179
0.0821712
0.286118
0.187443
0.827999
0.304302
1.32685
0.41136
1.74222
0.513368
2.12617
0.611726
2.51946
0.726502
2.97988
0.855581
3.46967
0.930584
4.26538
0.804102
4.62788
0.577606
4.25184
0.528061
4.39035
0.478369
4.66049
0.39546
4.23621
0.319485
3.56776
0.236498
2.88794
0.125671
2.20392
0.0294802
1.48223
0.679998
-0.00603978
-0.0129782
-0.00276256
0.282841
0.0493948
0.775841
0.143412
1.23283
0.263245
1.62239
0.398981
1.99043
0.550911
2.36753
0.741312
2.78948
0.951029
3.25995
1.09672
4.11969
0.982342
4.74226
0.609601
4.62458
0.415893
4.58406
0.31544
4.76094
0.242968
4.30869
0.184024
3.6267
0.0914382
2.98053
0.0142814
2.28107
-0.012785
1.50929
0.667213
-0.0172991
0.00432097
-0.0339029
0.299444
-0.0142877
0.756226
0.0573003
1.16124
0.173377
1.50631
0.324145
1.83966
0.510137
2.18154
0.746396
2.55322
0.999646
3.0067
1.19576
3.92358
1.12198
4.81603
0.715349
5.03121
0.400729
4.89868
0.252835
4.90883
0.158748
4.40277
0.0541911
3.73126
-0.0572547
3.09197
-0.0642922
2.28811
-0.0447263
1.48973
0.622487
-0.0166902
0.0210112
-0.0408666
0.323621
-0.0366319
0.751992
0.0191987
1.10541
0.119785
1.40572
0.262708
1.69674
0.447255
1.99699
0.685174
2.3153
0.953595
2.73828
1.18773
3.68944
1.14657
4.85719
0.8058
5.37199
0.430128
5.27435
0.199277
5.13969
0.0226281
4.57942
-0.150099
3.90399
-0.197383
3.13926
-0.149892
2.24062
-0.0890681
1.4289
0.533418
-0.014442
0.0354531
-0.0412304
0.350409
-0.0421393
0.7529
-0.00507905
1.06835
0.0700458
1.3306
0.181089
1.5857
0.328615
1.84947
0.521712
2.12221
0.758587