/*--------------------------------*- C++ -*----------------------------------*\
| =========                 |                                                 |
| \\      /  F ield         | OpenFOAM: The Open Source CFD Toolbox           |
|  \\    /   O peration     | Version:  v2012                                 |
|   \\  /    A nd           | Website:  www.openfoam.com                      |
|    \\/     M anipulation  |                                                 |
\*---------------------------------------------------------------------------*/
FoamFile
{
    version     2.0;
    format      ascii;
    class       volScalarField;
    location    "52";
    object      p;
}
// * * * * * * * * * * * * * * * * * * * * * * * * * * * * * * * * * * * * * //

dimensions      [0 2 -2 0 0 0 0];


internalField   nonuniform List<scalar> 
2200
(
0.777622
0.756122
0.740214
0.724548
0.709938
0.697416
0.687061
0.678954
0.673245
0.670296
0.670752
0.674543
0.680888
0.689448
0.700126
0.71289
0.727671
0.743581
0.759616
0.781116
0.710053
0.706794
0.703871
0.69975
0.694282
0.687806
0.681186
0.675229
0.670721
0.668323
0.66881
0.672097
0.677266
0.683715
0.69069
0.697436
0.7031
0.707206
0.710064
0.713419
0.67014
0.67036
0.672411
0.673752
0.674145
0.673289
0.671301
0.668619
0.666073
0.664578
0.665131
0.667578
0.670842
0.674051
0.676387
0.677385
0.67711
0.676103
0.674448
0.6742
0.647634
0.649081
0.651687
0.654153
0.656593
0.658609
0.659764
0.659991
0.65961
0.659307
0.659926
0.661296
0.662487
0.662873
0.662182
0.660509
0.658341
0.656131
0.653516
0.65211
0.633321
0.635296
0.638112
0.640936
0.643785
0.64661
0.649064
0.650921
0.652142
0.652932
0.653649
0.654114
0.653866
0.652744
0.650874
0.648496
0.645947
0.643222
0.640424
0.6385
0.625973
0.627571
0.629769
0.632294
0.63496
0.637625
0.640209
0.642617
0.644621
0.646119
0.646965
0.646966
0.64613
0.64461
0.642709
0.640563
0.638232
0.635889
0.633793
0.632217
0.622569
0.623592
0.624857
0.626717
0.628857
0.63102
0.633208
0.635489
0.637701
0.639531
0.640543
0.640539
0.639742
0.638525
0.637114
0.635544
0.63385
0.632274
0.631153
0.630137
0.619932
0.620603
0.621234
0.622534
0.624143
0.62582
0.627564
0.629481
0.63153
0.633472
0.634698
0.634991
0.634648
0.634014
0.633225
0.63226
0.631187
0.630251
0.6298
0.629124
0.61669
0.617135
0.617529
0.618522
0.619783
0.621164
0.622654
0.624301
0.626129
0.628065
0.629547
0.630302
0.630548
0.630477
0.630181
0.629702
0.62911
0.628564
0.62837
0.627906
0.612673
0.61297
0.613327
0.614195
0.6153
0.616561
0.617984
0.619583
0.621365
0.623346
0.625179
0.626471
0.627211
0.627562
0.627615
0.62745
0.627128
0.626785
0.62665
0.626328
0.608018
0.608221
0.60859
0.609416
0.610504
0.611807
0.613319
0.615041
0.61699
0.619211
0.621433
0.623193
0.624351
0.625007
0.625302
0.625351
0.625204
0.625003
0.624889
0.624654
0.602862
0.603008
0.603379
0.604186
0.605332
0.606765
0.608473
0.610447
0.612712
0.615329
0.618067
0.620307
0.621822
0.622751
0.623254
0.623463
0.623508
0.623449
0.623366
0.623179
0.597301
0.59741
0.597788
0.598603
0.599813
0.601394
0.60334
0.60566
0.60839
0.611575
0.614914
0.61769
0.619608
0.620834
0.621577
0.622004
0.62223
0.622295
0.622251
0.622091
0.591356
0.591425
0.591803
0.592648
0.593984
0.595754
0.59797
0.600686
0.604003
0.607934
0.612026
0.615364
0.617714
0.619318
0.620405
0.621114
0.621548
0.621747
0.621742
0.621592
0.584912
0.584952
0.585371
0.586278
0.587746
0.589725
0.592247
0.595407
0.599338
0.604074
0.60906
0.613163
0.616141
0.618295
0.619809
0.620839
0.621516
0.621854
0.621898
0.621751
0.577862
0.577835
0.578254
0.579241
0.580923
0.583156
0.586007
0.589652
0.59429
0.599986
0.606041
0.611196
0.61499
0.617774
0.619837
0.621273
0.622217
0.622707
0.622803
0.622656
0.569938
0.569909
0.570359
0.571477
0.57338
0.575915
0.57922
0.583501
0.588993
0.595842
0.603227
0.609569
0.614392
0.61796
0.620605
0.622509
0.623773
0.624431
0.62458
0.624425
0.561044
0.561067
0.56149
0.562709
0.564934
0.567917
0.571847
0.576945
0.583515
0.591766
0.600741
0.608507
0.614445
0.618915
0.622248
0.624655
0.626254
0.627086
0.627288
0.627123
0.550694
0.550673
0.551212
0.552648
0.555252
0.558832
0.563593
0.569774
0.577706
0.587664
0.598548
0.608024
0.6153
0.620769
0.624834
0.627826
0.629803
0.630808
0.631062
0.630877
0.538432
0.538364
0.539038
0.540854
0.543973
0.548313
0.554154
0.561763
0.571533
0.583721
0.59691
0.608268
0.616955
0.623545
0.628512
0.632099
0.634493
0.635676
0.635976
0.635768
0.523902
0.523793
0.524563
0.52677
0.530659
0.536089
0.543391
0.552929
0.56512
0.580058
0.595859
0.609262
0.619536
0.627385
0.633273
0.637602
0.640449
0.6418
0.642136
0.641902
0.506165
0.506078
0.50707
0.509829
0.514724
0.521644
0.530956
0.542986
0.558135
0.576327
0.595212
0.611074
0.623125
0.632333
0.639288
0.64441
0.647712
0.649244
0.649608
0.64934
0.484248
0.484092
0.485397
0.488991
0.495372
0.504396
0.516364
0.531584
0.550276
0.572254
0.594708
0.613466
0.627672
0.638438
0.6466
0.652572
0.656348
0.658038
0.65841
0.658104
0.456001
0.456004
0.458058
0.463048
0.471648
0.483716
0.499404
0.518755
0.541781
0.568194
0.594745
0.616653
0.633149
0.645678
0.655184
0.662076
0.666323
0.668153
0.668497
0.668145
0.418554
0.418792
0.422292
0.430127
0.442675
0.45961
0.480545
0.505335
0.533771
0.56536
0.596193
0.621244
0.64003
0.654299
0.665136
0.672963
0.677587
0.679436
0.679707
0.67931
0.368516
0.368886
0.375815
0.388952
0.407964
0.432092
0.460069
0.491547
0.526237
0.563529
0.598973
0.627248
0.648307
0.664302
0.676449
0.684983
0.689689
0.691314
0.691418
0.691063
0.302449
0.305271
0.320285
0.34153
0.369393
0.402417
0.438541
0.47749
0.519137
0.562873
0.603583
0.635643
0.659625
0.677871
0.691573
0.701149
0.706036
0.707394
0.707353
0.707182
0.227257
0.236627
0.261634
0.292717
0.330663
0.372686
0.416941
0.463544
0.512388
0.562867
0.609332
0.646298
0.673955
0.69491
0.710891
0.721646
0.726672
0.727639
0.727554
0.727521
0.159921
0.174598
0.205882
0.245738
0.293171
0.343972
0.396207
0.450422
0.506398
0.563502
0.616078
0.657381
0.688149
0.711696
0.729162
0.740947
0.746217
0.747111
0.747369
0.747345
0.108509
0.121669
0.158312
0.204279
0.259014
0.317297
0.376923
0.438463
0.501593
0.565449
0.623514
0.668525
0.70228
0.727752
0.746753
0.759446
0.765121
0.766547
0.766704
0.766753
0.0661459
0.0785555
0.118867
0.168795
0.229037
0.293341
0.35946
0.427561
0.497013
0.56676
0.62951
0.678708
0.71508
0.742576
0.763182
0.776546
0.782909
0.784709
0.784823
0.784905
0.0297842
0.0424717
0.0854697
0.138285
0.202899
0.272035
0.343577
0.417249
0.492201
0.567596
0.635757
0.688364
0.726894
0.756081
0.777931
0.792084
0.798756
0.800797
0.80098
0.801073
-0.00191967
0.0109786
0.0561439
0.111533
0.179705
0.252794
0.328916
0.407455
0.487598
0.568389
0.640934
0.696445
0.737444
0.768082
0.790712
0.805475
0.812609
0.814804
0.815078
0.815151
-0.030226
-0.0172663
0.029582
0.0874234
0.15869
0.235167
0.315264
0.398152
0.482984
0.568317
0.644798
0.703766
0.746512
0.778182
0.801503
0.816897
0.824234
0.826665
0.827004
0.827052
-0.0560644
-0.0430595
0.00497299
0.0651877
0.139233
0.218719
0.302322
0.38899
0.477876
0.567563
0.648511
0.71002
0.754295
0.787203
0.810728
0.826533
0.834212
0.836803
0.837201
0.837218
-0.0802524
-0.0669156
-0.0180382
0.0443387
0.120823
0.20301
0.289695
0.379669
0.472294
0.566251
0.650951
0.714994
0.761237
0.794886
0.819119
0.8349
0.842771
0.845473
0.845889
0.845854
-0.102984
-0.0894803
-0.0397114
0.0245579
0.103119
0.187685
0.277087
0.370065
0.466182
0.563995
0.652384
0.719711
0.767566
0.80213
0.826701
0.842275
0.850194
0.852846
0.853249
0.853069
-0.124425
-0.110871
-0.0603269
0.00554796
0.0858742
0.172548
0.264396
0.360126
0.459382
0.560703
0.653008
0.723608
0.773357
0.808928
0.833637
0.849049
0.856621
0.859261
0.859636
0.859538
-0.144999
-0.13126
-0.0800979
-0.0128841
0.0689718
0.157536
0.251579
0.349758
0.4518
0.556562
0.653003
0.726931
0.779043
0.815755
0.840348
0.855305
0.862691
0.865092
0.865461
0.86536
-0.165103
-0.15083
-0.0992197
-0.0308489
0.0523426
0.142591
0.238594
0.338955
0.443586
0.551703
0.652075
0.729607
0.784676
0.822626
0.847305
0.861701
0.868427
0.87054
0.870809
0.87071
-0.184891
-0.169865
-0.117814
-0.0483925
0.0359712
0.127701
0.225423
0.327757
0.434801
0.545973
0.650185
0.731765
0.789952
0.829994
0.854983
0.868426
0.874279
0.875601
0.87574
0.875658
-0.204221
-0.188464
-0.13595
-0.0655337
0.0198523
0.112855
0.212084
0.316222
0.425492
0.539459
0.647362
0.733137
0.795093
0.837836
0.863774
0.876296
0.88032
0.88034
0.880181
0.88006
-0.223015
-0.20666
-0.153619
-0.0822747
0.00400639
0.0981108
0.198658
0.304419
0.415701
0.532164
0.643364
0.733409
0.799657
0.84615
0.874225
0.885849
0.887487
0.884844
0.884428
0.885276
-0.241178
-0.224369
-0.170793
-0.0985877
-0.0115166
0.0835314
0.185211
0.292379
0.405406
0.524031
0.638166
0.732483
0.80362
0.854695
0.886363
0.898636
0.897484
0.890838
0.885782
0.884411
-0.258727
-0.241538
-0.187414
-0.11443
-0.026661
0.0691923
0.171813
0.280149
0.394664
0.515186
0.631886
0.730117
0.806227
0.863112
0.90011
0.915559
0.915229
0.903524
0.902556
0.906756
-0.27563
-0.258086
-0.203437
-0.129749
-0.0413661
0.0551509
0.158521
0.2678
0.383553
0.505686
0.624504
0.726045
0.807182
0.870357
0.914478
0.936397
0.939266
0.910519
0.870416
0.834879
-0.291857
-0.274039
-0.218889
-0.144612
-0.0557345
0.0412848
0.145195
0.255175
0.371889
0.495323
0.615789
0.719885
0.805351
0.875363
0.928504
0.960153
0.978063
0.959098
0.976065
1.03483
-0.307342
-0.289412
-0.233865
-0.159162
-0.0699473
0.0273683
0.131572
0.241956
0.359253
0.483521
0.605144
0.710943
0.799675
0.875233
0.933929
0.970016
0.980876
0.959064
0.917752
0.932665
-0.322076
-0.304201
-0.248314
-0.173345
-0.0839324
0.0135047
0.117792
0.228296
0.345771
0.470375
0.592571
0.698918
0.788272
0.865427
0.924822
0.96036
0.947992
0.894083
0.830072
0.817766
-0.336028
-0.318368
-0.262233
-0.187162
-0.0976841
-0.000298691
0.103872
0.214213
0.331465
0.455888
0.577937
0.683602
0.770983
0.84355
0.89733
0.905814
0.870786
0.793897
0.719369
0.697069
-0.349246
-0.331929
-0.275628
-0.200625
-0.111223
-0.014055
0.0898099
0.199724
0.316377
0.440054
0.561098
0.664652
0.746451
0.80743
0.836579
0.823856
0.765998
0.664444
0.577128
0.554994
-0.362183
-0.345263
-0.288897
-0.214103
-0.124898
-0.0280776
0.0753277
0.184603
0.300347
0.422738
0.54186
0.641651
0.716047
0.761333
0.756459
0.721742
0.611037
0.488717
0.381383
0.354289
-0.375738
-0.359207
-0.302735
-0.228213
-0.139285
-0.0428551
0.060013
0.168518
0.283111
0.403692
0.519889
0.614011
0.681259
0.702677
0.669115
0.581601
0.425854
0.273362
0.144185
0.116641
-0.390424
-0.374115
-0.317475
-0.243207
-0.154563
-0.0585167
0.043777
0.151417
0.264658
0.38295
0.495266
0.582868
0.639905
0.633152
0.580612
0.431275
0.231856
0.0195975
-0.160277
-0.208631
-0.406371
-0.390151
-0.333169
-0.259094
-0.170718
-0.0750381
0.0266509
0.133334
0.245022
0.360557
0.467854
0.549572
0.591953
0.553502
0.466399
0.278998
0.0482355
-0.239993
-0.560879
-0.708668
-0.423634
-0.407329
-0.349952
-0.275989
-0.187805
-0.0924778
0.00856714
0.114195
0.224159
0.336593
0.438074
0.513628
0.538204
0.469299
0.333344
0.128351
-0.105233
-0.448467
-1.03474
-1.60644
-0.442316
-0.425839
-0.367875
-0.293927
-0.20585
-0.110837
-0.010444
0.0940797
0.202242
0.311477
0.40704
0.474991
0.480845
0.395258
0.204699
-0.0283485
-0.230625
-0.464752
-1.01969
-2.53424
-0.462412
-0.44563
-0.387064
-0.313066
-0.225013
-0.130313
-0.0306243
0.0727069
0.17894
0.284849
0.374459
0.432984
0.418626
0.337447
0.111873
-0.125958
-0.273282
-0.310093
-0.299588
-0.687235
-0.483879
-0.467028
-0.407658
-0.333665
-0.245698
-0.151414
-0.0525998
0.0493172
0.153314
0.25533
0.339402
0.387683
0.357772
0.288598
0.0622127
-0.139768
-0.250089
-0.25767
-0.204307
-0.244522
-0.506523
-0.489674
-0.429696
-0.355843
-0.267994
-0.174262
-0.0765201
0.0237439
0.125139
0.222677
0.301969
0.340309
0.30404
0.235725
0.0306911
-0.129866
-0.211712
-0.219374
-0.267266
-0.271452
-0.530468
-0.513627
-0.453037
-0.379526
-0.29188
-0.198884
-0.102434
-0.00407798
0.0943838
0.187312
0.26209
0.291008
0.257532
0.175551
0.00287295
-0.119798
-0.189934
-0.166668
-0.18717
-0.188737
-0.55528
-0.53828
-0.477654
-0.404705
-0.31723
-0.225197
-0.130254
-0.0340201
0.0612255
0.149625
0.21976
0.238234
0.216892
0.108198
-0.0316474
-0.114679
-0.153926
-0.200993
-0.175913
-0.184332
-0.580804
-0.563409
-0.503302
-0.43108
-0.343781
-0.253044
-0.15981
-0.0658918
0.025787
0.109957
0.176093
0.184368
0.174597
0.0479429
-0.0683978
-0.13279
-0.110682
-0.17038
-0.150948
-0.155761
-0.606043
-0.588464
-0.529895
-0.458397
-0.371244
-0.282192
-0.190802
-0.0993313
-0.0116864
0.0686904
0.132081
0.132984
0.123305
-0.00377742
-0.095076
-0.146696
-0.134943
-0.150578
-0.15601
-0.154244
-0.630697
-0.613256
-0.556579
-0.485782
-0.399193
-0.312259
-0.22283
-0.133974
-0.0506871
0.0261139
0.0880941
0.0851467
0.0668711
-0.0469141
-0.109472
-0.139601
-0.178332
-0.151043
-0.15733
-0.151936
-0.653673
-0.636971
-0.582291
-0.512564
-0.427351
-0.342743
-0.255354
-0.169219
-0.0903304
-0.0174285
0.043913
0.0411682
0.0115614
-0.0843753
-0.125072
-0.113355
-0.185361
-0.132901
-0.14817
-0.140804
-0.674361
-0.658783
-0.606009
-0.53756
-0.4552
-0.372765
-0.28765
-0.204479
-0.129662
-0.06151
-0.000743655
0.00014012
-0.0357498
-0.103561
-0.137721
-0.0974522
-0.141764
-0.123311
-0.129612
-0.126724
-0.691109
-0.677181
-0.627026
-0.560554
-0.481905
-0.401328
-0.318929
-0.238933
-0.167706
-0.105195
-0.0459123
-0.0397452
-0.070902
-0.108332
-0.133825
-0.112992
-0.124025
-0.123719
-0.12356
-0.123801
-0.703123
-0.691304
-0.644319
-0.580347
-0.505429
-0.427526
-0.348226
-0.271643
-0.203544
-0.147194
-0.0898251
-0.0778506
-0.100134
-0.106001
-0.123556
-0.137323
-0.124631
-0.133306
-0.126928
-0.127786
-0.708948
-0.699548
-0.656759
-0.59607
-0.524861
-0.450287
-0.374489
-0.30143
-0.236278
-0.1856
-0.13023
-0.115216
-0.137392
-0.109539
-0.0938776
-0.128375
-0.108616
-0.14073
-0.139983
-0.141836
-0.708541
-0.701269
-0.662718
-0.605749
-0.538604
-0.468122
-0.396296
-0.32694
-0.264868
-0.218328
-0.16566
-0.151203
-0.179466
-0.141879
-0.030046
-0.0635406
-0.0716417
-0.0889734
-0.0947056
-0.103542
-0.700916
-0.693626
-0.660324
-0.608636
-0.546284
-0.480126
-0.412407
-0.346482
-0.287249
-0.243004
-0.19435
-0.188186
-0.219997
-0.255122
-0.22754
-0.300216
-0.30799
-0.293158
-0.282189
-0.274783
-0.681199
-0.673003
-0.647333
-0.602706
-0.54615
-0.485024
-0.421682
-0.358753
-0.301025
-0.257109
-0.211379
-0.207464
-0.292537
-0.486428
-0.818555
-0.984297
-1.02209
-0.989373
-0.904888
-0.834171
-0.640683
-0.63299
-0.622289
-0.588981
-0.539451
-0.483119
-0.423825
-0.362422
-0.303485
-0.25653
-0.212458
-0.188563
-0.306352
-0.533478
-0.803156
-0.892544
-0.862836
-0.776005
-0.705248
-0.671269
-0.597741
-0.59455
-0.593262
-0.567284
-0.526011
-0.475443
-0.419115
-0.357749
-0.293955
-0.237649
-0.184963
-0.109506
-0.0461424
0.0491657
0.121817
0.246557
0.369177
0.449328
0.513961
0.567685
-0.573848
-0.574924
-0.566554
-0.548641
-0.513749
-0.465617
-0.408913
-0.346
-0.274369
-0.197724
-0.120201
0.0240279
0.229559
0.564944
0.889255
1.15463
1.34045
1.44559
1.49107
1.50713
-0.542506
-0.543039
-0.538434
-0.532041
-0.502011
-0.456063
-0.398037
-0.331624
-0.252251
-0.157323
-0.0537095
0.0945481
0.349308
0.703588
1.0496
1.3353
1.53671
1.65416
1.70759
1.72629
-0.520241
-0.518844
-0.52051
-0.515169
-0.491132
-0.447599
-0.388216
-0.317532
-0.233632
-0.130057
-0.0160391
0.105213
0.349106
0.658989
0.965842
1.23029
1.43251
1.55617
1.61179
1.62792
-0.502974
-0.501116
-0.504217
-0.497297
-0.483434
-0.443419
-0.382298
-0.307691
-0.221502
-0.117569
-0.00727968
0.080499
0.283517
0.545411
0.800152
1.0215
1.19941
1.30815
1.35611
1.36829
-0.486281
-0.484365
-0.482687
-0.478019
-0.476631
-0.439545
-0.378541
-0.302587
-0.217601
-0.120585
-0.0174183
0.0477273
0.204193
0.42342
0.628292
0.800406
0.938853
1.02403
1.06047
1.06954
-0.489566
-0.487679
-0.484514
-0.487063
-0.483533
-0.440082
-0.376119
-0.299463
-0.217236
-0.131365
-0.0344578
0.0193406
0.1322
0.310286
0.471931
0.59992
0.699841
0.76344
0.791042
0.797248
-0.506787
-0.506939
-0.508205
-0.517653
-0.50319
-0.44754
-0.374408
-0.294897
-0.21538
-0.141283
-0.0508788
-0.00260616
0.0733792
0.213244
0.337241
0.430982
0.502953
0.549943
0.5688
0.573936
-0.508391
-0.511011
-0.518394
-0.525703
-0.506022
-0.442928
-0.364346
-0.284705
-0.20828
-0.145159
-0.063541
-0.0185878
0.028811
0.135936
0.229246
0.29753
0.350444
0.385449
0.39837
0.403137
-0.448803
-0.452622
-0.464704
-0.468983
-0.450907
-0.397734
-0.331662
-0.262279
-0.192826
-0.140016
-0.07083
-0.0300269
0.000229798
0.0818564
0.14973
0.198341
0.237573
0.263834
0.274143
0.276813
-0.322082
-0.326982
-0.332253
-0.336174
-0.326952
-0.299738
-0.261587
-0.217261
-0.165578
-0.124354
-0.0714672
-0.0372047
-0.0160294
0.0475919
0.0952533
0.128523
0.155876
0.172806
0.180292
0.182407
-0.18749
-0.189669
-0.192827
-0.196829
-0.194726
-0.187609
-0.175449
-0.156433
-0.127649
-0.100313
-0.0656063
-0.0386732
-0.0224751
0.0251641
0.0578403
0.0803144
0.0971169
0.106571
0.110156
0.110611
-0.0778295
-0.0790388
-0.081463
-0.0867347
-0.0923866
-0.0978945
-0.10084
-0.0979457
-0.0872722
-0.0741724
-0.0546906
-0.0364835
-0.0224301
0.0102415
0.0317019
0.045687
0.0545425
0.0584065
0.0588093
0.0579636
-0.0049111
-0.0057744
-0.0076683
-0.0137543
-0.0249925
-0.0375421
-0.0472908
-0.0527984
-0.0528929
-0.0504996
-0.0412203
-0.0305747
-0.0203488
-0.000284908
0.0123168
0.0195205
0.0229423
0.0232509
0.0218122
0.0205103
0.0338035
0.0331973
0.03154
0.025646
0.0139985
-0.000293546
-0.0129388
-0.0227281
-0.0280745
-0.0316715
-0.0279914
-0.0229646
-0.0172449
-0.00736132
-0.00198088
0.000443128
0.00103991
-0.000380372
-0.00257051
-0.00401002
0.0507466
0.0502327
0.0487439
0.0435097
0.0332483
0.0199182
0.00706895
-0.00418661
-0.0117524
-0.0180462
-0.0168307
-0.0152962
-0.0143251
-0.0109409
-0.0102006
-0.0106464
-0.0120588
-0.0144628
-0.0166365
-0.0179973
0.0547437
0.0543496
0.053157
0.0489553
0.0406663
0.0294774
0.0178215
0.00670665
-0.00147953
-0.00871493
-0.00881646
-0.00888687
-0.0111492
-0.0115102
-0.0128513
-0.0147279
-0.0172446
-0.0198904
-0.021876
-0.023181
0.0521072
0.051823
0.0509096
0.0477336
0.0414672
0.0327787
0.0230683
0.0131277
0.0053323
-0.00214196
-0.00336781
-0.00482673
-0.00772714
-0.00908461
-0.0113891
-0.0142534
-0.0171091
-0.0194756
-0.0211475
-0.0223183
0.0466032
0.0464175
0.0457619
0.0434684
0.038916
0.0324946
0.0248968
0.0166439
0.0099986
0.00259054
0.000606808
-0.00161786
-0.00434634
-0.00580243
-0.00839531
-0.011265
-0.0138403
-0.0158154
-0.0170129
-0.0180494
0.0400135
0.0399048
0.0394508
0.0378636
0.0346712
0.0300431
0.0244096
0.0178915
0.0126913
0.00573365
0.00344299
0.00168035
-0.000939415
-0.00289775
-0.00554278
-0.00800352
-0.0100151
-0.0115152
-0.0122437
-0.0131405
0.0333255
0.033254
0.0329324
0.0318196
0.0295564
0.0262102
0.0220297
0.0169184
0.013274
0.00742389
0.00534826
0.00390677
0.0015837
-0.000200434
-0.00283482
-0.00508935
-0.00665973
-0.00772246
-0.0080504
-0.00879769
0.0270863
0.0270503
0.0268478
0.0261151
0.024544
0.0220949
0.0189317
0.0148718
0.0122927
0.00764423
0.00593243
0.00461248
0.00249342
0.00120001
-0.000808819
-0.00230829
-0.00340734
-0.00423686
-0.00444162
-0.00507726
0.0212216
0.0211803
0.021017
0.0205304
0.0195332
0.0179262
0.0157256
0.0126495
0.0107595
0.00706281
0.00542926
0.00424695
0.00222349
0.00129335
0.00021929
-0.000429555
-0.00101154
-0.00147983
-0.00152941
-0.00206856
0.0161343
0.0160877
0.0159716
0.0156491
0.0150032
0.0139718
0.0125554
0.0102885
0.00900231
0.00586988
0.00436796
0.00299578
0.00092661
0.000799928
0.000610343
0.000587385
0.000542662
0.000390627
0.000356854
-0.000158133
0.0118982
0.0118565
0.0117918
0.0116093
0.0112202
0.0105193
0.00958705
0.00794397
0.00718789
0.00438013
0.00318263
0.00143961
-0.000442408
1.98421e-05
0.000526998
0.000927419
0.00119141
0.00119781
0.00120007
0.000780135
0.00807118
0.00803101
0.00797748
0.00784779
0.00761043
0.007182
0.00667484
0.00549564
0.0051684
0.00288455
0.0019881
0.000308093
-0.00109861
-0.000354618
0.00020824
0.000812768
0.00139813
0.00157582
0.00159952
0.0011576
0.00462293
0.00458379
0.00455671
0.0045267
0.00441578
0.00414712
0.003946
0.00310364
0.00305633
0.00146685
0.000960077
-0.000375236
-0.0013929
-0.000242438
4.64205e-06
0.000497025
0.00110016
0.00142776
0.00160306
0.0012451
0.00168284
0.00166791
0.00167169
0.00169161
0.00168531
0.001574
0.00153319
0.00103362
0.00122396
0.000471286
0.000495834
-4.35921e-06
-0.000545151
0.00017642
-0.000462523
-0.000849765
-0.00125195
-0.00146569
-0.00109595
-0.00110009
-1.07258
-0.232575
0.0374888
0.31381
0.495524
0.651643
0.778119
0.907041
1.04869
1.13102
-0.0920903
0.314737
0.331313
0.519632
0.643651
0.754942
0.850742
0.936083
0.963522
0.92146
0.284995
0.498873
0.534057
0.670495
0.756458
0.836318
0.902194
0.951634
0.953736
0.967792
0.514552
0.657556
0.692646
0.7945
0.851392
0.90914
0.953966
0.986322
0.995381
1.01905
0.692581
0.794034
0.823792
0.891492
0.935929
0.976994
1.00913
1.0334
1.04318
1.07474
0.835928
0.904776
0.935109
0.978047
1.01414
1.04429
1.06858
1.08931
1.10344
1.13172
0.955141
1.00573
1.0313
1.0593
1.08698
1.11076
1.13072
1.14996
1.16485
1.19135
1.05895
1.09597
1.11706
1.13771
1.15852
1.17791
1.19531
1.21342
1.2283
1.25196
1.15296
1.18208
1.19842
1.21369
1.2298
1.24587
1.26142
1.27833
1.29194
1.31426
1.24124
1.26171
1.27656
1.28972
1.30329
1.31706
1.33056
1.34515
1.3567
1.37634
1.32669
1.34247
1.3563
1.36811
1.38002
1.39165
1.40279
1.41448
1.42215
1.43896
1.41191
1.42445
1.43816
1.44991
1.46055
1.47035
1.47917
1.48744
1.491
1.50225
1.50066
1.51147
1.52494
1.53448
1.54205
1.54934
1.55653
1.56303
1.56411
1.57149
1.59907
1.60366
1.61186
1.61662
1.62001
1.6245
1.6305
1.63818
1.64206
1.65194
1.71237
1.69928
1.69199
1.68626
1.68353
1.68488
1.69123
1.7036
1.71841
1.74808
1.83437
1.77834
1.74731
1.73012
1.7219
1.72184
1.73066
1.75026
1.78209
1.85134
)
;

boundaryField
{
    wall-4
    {
        type            zeroGradient;
    }
    pressure-outlet-7
    {
        type            fixedValue;
        value           uniform 0;
    }
    velocity-inlet-6
    {
        type            zeroGradient;
    }
    velocity-inlet-5
    {
        type            zeroGradient;
    }
    frontAndBackPlanes
    {
        type            empty;
    }
}


// ************************************************************************* //
