/*--------------------------------*- C++ -*----------------------------------*\
| =========                 |                                                 |
| \\      /  F ield         | OpenFOAM: The Open Source CFD Toolbox           |
|  \\    /   O peration     | Version:  v2012                                 |
|   \\  /    A nd           | Website:  www.openfoam.com                      |
|    \\/     M anipulation  |                                                 |
\*---------------------------------------------------------------------------*/
FoamFile
{
    version     2.0;
    format      ascii;
    class       surfaceScalarField;
    location    "52";
    object      phi;
}
// * * * * * * * * * * * * * * * * * * * * * * * * * * * * * * * * * * * * * //

dimensions      [0 3 -1 0 0 0 0];
oriented        oriented;


internalField   nonuniform List<scalar> 
4262
(
0.107142
0.470846
0.0955809
0.705147
0.069408
0.858476
0.0474242
1.02075
0.0310613
1.21488
0.0198512
1.44943
0.0124415
1.73327
0.00724049
2.07624
0.00332688
2.48916
-0.000368874
2.98599
-0.004058
2.98598
-0.00792348
2.48911
-0.0129779
2.07609
-0.0201756
1.73306
-0.0311746
1.44922
-0.0472502
1.21459
-0.0689908
1.0205
-0.0952358
0.858548
-0.107079
0.705429
0.470909
0.112878
0.357969
0.135294
0.68273
0.120389
0.873381
0.0977997
1.04334
0.0745377
1.23814
0.0528409
1.47113
0.0344637
1.75165
0.020244
2.09046
0.0088965
2.5005
-0.00124105
2.99613
-0.011284
2.99602
-0.0224237
2.50025
-0.0364793
2.09015
-0.0547714
1.75135
-0.0764849
1.47093
-0.100138
1.23825
-0.123282
1.04365
-0.136907
0.872173
-0.113524
0.682046
0.357385
0.0920603
0.265908
0.125006
0.649784
0.121165
0.877222
0.104971
1.05953
0.0863312
1.25678
0.0671699
1.49029
0.0482201
1.7706
0.0301907
2.10849
0.013717
2.51698
-0.0021019
3.01194
-0.0177551
3.01168
-0.0338192
2.51631
-0.0513566
2.10768
-0.0698474
1.76984
-0.0883268
1.48941
-0.105694
1.25561
-0.119921
1.05788
-0.125231
0.877484
-0.0923328
0.649148
0.265052
0.0640413
0.201867
0.104921
0.608905
0.106676
0.875467
0.0952417
1.07096
0.0813247
1.2707
0.0666026
1.50501
0.0504756
1.78673
0.0333316
2.12563
0.0156241
2.53469
-0.00310391
3.03067
-0.0216129
3.03019
-0.0388365
2.53354
-0.0553386
2.12419
-0.0706224
1.78513
-0.0844817
1.50327
-0.0981698
1.2693
-0.10991
1.06962
-0.106973
0.874546
-0.0648847
0.60706
0.200167
0.0374727
0.164395
0.0807226
0.565655
0.0910856
0.865104
0.0838932
1.07816
0.0712978
1.28329
0.0594758
1.51683
0.0464876
1.79972
0.0315493
2.14057
0.0146317
2.5516
-0.00445062
3.04975
-0.0230932
3.04883
-0.0391628
2.54961
-0.0531199
2.13814
-0.0652349
1.79724
-0.0764833
1.51452
-0.0884305
1.28125
-0.0948291
1.07601
-0.0830538
0.862771
-0.0383356
0.562341
0.161832
0.0194994
0.144895
0.0573039
0.52785
0.0727727
0.849635
0.0707542
1.08018
0.0620147
1.29203
0.0511732
1.52767
0.040007
1.81088
0.0273868
2.15319
0.012366
2.56662
-0.00531201
3.06743
-0.0228283
3.06635
-0.0372038
2.56398
-0.0487507
2.14969
-0.0586894
1.80718
-0.0685019
1.52433
-0.076166
1.28891
-0.0770269
1.07687
-0.0599359
0.84568
-0.0203523
0.522758
0.141479
0.010646
0.134249
0.0424209
0.496076
0.058524
0.833532
0.0587976
1.0799
0.0526854
1.29815
0.0433894
1.53697
0.0331157
1.82116
0.0217982
2.16451
0.00846559
2.57996
-0.00751045
3.08341
-0.0228237
3.08166
-0.0347219
2.57588
-0.0445974
2.15957
-0.0534588
1.81604
-0.0614012
1.53227
-0.0659998
1.29351
-0.0641002
1.07498
-0.0457879
0.827368
-0.0116705
0.48864
0.129809
0.00661388
0.127635
0.0331145
0.469575
0.0495079
0.817139
0.0510765
1.07833
0.0459594
1.30326
0.0375498
1.54538
0.0279257
1.83078
0.0171228
2.17531
0.00522932
2.59185
-0.00848153
3.09712
-0.0218938
3.09507
-0.0327578
2.58674
-0.0419147
2.16872
-0.0497354
1.82386
-0.0564212
1.53896
-0.0597217
1.29681
-0.0561534
1.07141
-0.037105
0.808319
-0.00784141
0.459377
0.121967
0.0047727
0.122863
0.0267086
0.447639
0.0426061
0.801241
0.0448106
1.07613
0.0402693
1.3078
0.0326756
1.55297
0.0235889
1.83987
0.0131251
2.18577
0.00140418
2.60357
-0.011682
3.11021
-0.0235607
3.10695
-0.0332293
2.59641
-0.0415531
2.17705
-0.0484664
1.83078
-0.0538701
1.54436
-0.0561835
1.29912
-0.0512874
1.06651
-0.0317669
0.788799
-0.00629708
0.433907
0.11567
0.00378534
0.119077
0.0218509
0.429573
0.0371372
0.785955
0.0399956
1.07327
0.0357223
1.31208
0.0284728
1.56022
0.0197392
1.8486
0.00967487
2.19584
-0.00148911
2.61474
-0.0134625
3.12218
-0.0249114
3.1184
-0.0342946
2.6058
-0.0418334
2.18458
-0.0480442
1.83699
-0.0528474
1.54917
-0.0541067
1.30038
-0.0477567
1.06016
-0.0279898
0.769032
-0.00568117
0.411598
0.109989
0.00307762
0.116
0.017646
0.415005
0.0317042
0.771897
0.0348664
1.07011
0.030948
1.316
0.0239915
1.56718
0.015592
1.857
0.00579397
2.20564
-0.00543529
2.62596
-0.0178105
3.13455
-0.0287375
3.12933
-0.0369582
2.61402
-0.0435231
2.19115
-0.0486274
1.84209
-0.0522689
1.55281
-0.0525002
1.30061
-0.0449386
1.0526
-0.0251674
0.749261
-0.0053892
0.39182
0.1046
0.00244538
0.113554
0.0140623
0.403388
0.0268044
0.759155
0.0299908
1.06692
0.0260762
1.31991
0.0191612
1.57409
0.0108221
1.86534
0.001218
2.21524
-0.00941984
2.6366
-0.0208488
3.14598
-0.0312861
3.13976
-0.0393289
2.62206
-0.0451067
2.19693
-0.0494491
1.84643
-0.0523525
1.55571
-0.0518202
1.30008
-0.0428889
1.04367
-0.0230892
0.729461
-0.00520705
0.373938
0.0993929
0.00173197
0.111822
0.0106561
0.394464
0.0216072
0.748203
0.0243763
1.06415
0.020417
1.32387
0.0135142
1.581
0.00524084
1.87361
-0.0040928
2.22457
-0.0147811
2.64729
-0.0266481
3.15785
-0.0364375
3.14955
-0.0428394
2.62846
-0.0475518
2.20164
-0.0511739
1.85006
-0.0531077
1.55765
-0.0517697
1.29874
-0.041705
1.0336
-0.0217769
0.709533
-0.00513832
0.357299
0.0942546
0.00090122
0.110921
0.00730149
0.388064
0.0166963
0.738809
0.0191338
1.06172
0.0148338
1.32817
0.00754458
1.58829
-0.00100575
1.88216
-0.0106063
2.23417
-0.0209671
2.65765
-0.0317564
3.16864
-0.0408319
3.15863
-0.0469978
2.63463
-0.0508463
2.20549
-0.0536771
1.85289
-0.0546104
1.55858
-0.0522734
1.29641
-0.0408893
1.02222
-0.0207539
0.689398
-0.00502221
0.341568
0.0892323
0.000191443
0.11073
0.00435307
0.383902
0.011256
0.731906
0.0125187
1.06045
0.00799028
1.3327
0.0006065
1.59567
-0.00839913
1.89117
-0.0183396
2.24411
-0.0290927
2.6684
-0.0400011
3.17955
-0.0483306
3.16696
-0.0529339
2.63923
-0.0557683
2.20832
-0.0577117
1.85483
-0.0577024
1.55857
-0.0539697
1.29267
-0.0410588
1.00931
-0.0204386
0.668778
-0.00507859
0.326208
0.0841537
-0.000740789
0.11147
0.000731555
0.38243
0.00574574
0.726892
0.00639903
1.0598
0.00113973
1.33796
-0.00713573
1.60394
-0.0166929
1.90072
-0.027054
2.25448
-0.0377154
2.67907
-0.0477244
3.18956
-0.0549153
3.17415
-0.0591054
2.64342
-0.0612647
2.21048
-0.06225
1.85582
-0.0612563
1.55758
-0.0559393
1.28736
-0.0415489
0.994918
-0.0204007
0.647629
-0.00516413
0.310971
0.0789896
-0.00158839
0.113059
-0.00236224
0.383204
-0.000306166
0.724836
-0.00188646
1.06138
-0.00793212
1.344
-0.016528
1.61254
-0.0267623
1.91096
-0.0380469
2.26576
-0.0495035
2.69052
-0.0596753
3.19973
-0.066342
3.18081
-0.0692663
2.64634
-0.069951
2.21117
-0.0694392
1.8553
-0.0668149
1.55495
-0.0595729
1.28012
-0.043252
0.978597
-0.0210321
0.625409
-0.00540546
0.295344
0.0735842
-0.00297232
0.116031
-0.00613129
0.386362
-0.00755734
0.726262
-0.0102721
1.06409
-0.0174609
1.35119
-0.0275295
1.62261
-0.0387348
1.92216
-0.0504208
2.27745
-0.061804
2.70191
-0.0714459
3.20937
-0.0766859
3.18605
-0.0783259
2.64798
-0.0779168
2.21076
-0.0765847
1.85397
-0.0731845
1.55155
-0.0641573
1.27109
-0.0456693
0.960109
-0.0221036
0.601844
-0.00576032
0.279001
0.0678238
-0.0042589
0.12029
-0.010352
0.392456
-0.0152509
0.731161
-0.0212097
1.07005
-0.029687
1.35967
-0.040704
1.63363
-0.053081
1.93454
-0.0661835
2.29055
-0.0788278
2.71455
-0.088707
3.21925
-0.0930074
3.19035
-0.0934097
2.64839
-0.0917573
2.20911
-0.0881005
1.85032
-0.0819582
1.54541
-0.0703311
1.25946
-0.0490997
0.938877
-0.0236867
0.576431
-0.00621336
0.261528
0.0616105
-0.00571344
0.126003
-0.0153503
0.402092
-0.0241527
0.739963
-0.0328003
1.0787
-0.043396
1.37026
-0.0565221
1.64675
-0.0704443
1.94846
-0.0842679
2.30437
-0.0968267
2.72711
-0.106322
3.22875
-0.109656
3.19369
-0.107917
2.64665
-0.103294
2.20448
-0.0987898
1.84581
-0.0919251
1.53854
-0.0777186
1.24526
-0.0533786
0.914537
-0.0256954
0.548748
-0.00675903
0.242591
0.0548514
-0.0079806
0.133984
-0.0221168
0.416229
-0.0363049
0.754151
-0.0483435
1.09074
-0.0606837
1.38261
-0.0755019
1.66157
-0.0914285
1.96439
-0.107522
2.32047
-0.121815
2.7414
-0.131259
3.23819
-0.13229
3.19472
-0.128307
2.64267
-0.122908
2.19908
-0.115126
1.83803
-0.104419
1.52784
-0.0866466
1.22748
-0.058631
0.886522
-0.0280442
0.518161
-0.00733858
0.221886
0.0475129
-0.0104551
0.144439
-0.0294813
0.435255
-0.0497746
0.774444
-0.0666164
1.10758
-0.0821672
1.39816
-0.0998596
1.67926
-0.118301
1.98283
-0.135698
2.33786
-0.149358
2.75506
-0.156295
3.24513
-0.155555
3.19398
-0.149599
2.63671
-0.140951
2.19044
-0.131465
1.82854
-0.118925
1.5153
-0.0971493
1.20571
-0.0645655
0.853938
-0.0306183
0.484214
-0.00791872
0.199186
0.0395941
-0.0151456
0.159585
-0.0417365
0.461846
-0.0689044
0.801612
-0.0909116
1.12959
-0.11035
1.41759
-0.131634
1.70055
-0.152491
2.00369
-0.171393
2.35676
-0.1854
2.76907
-0.191411
3.25114
-0.186806
3.18937
-0.177176
2.62708
-0.166204
2.17946
-0.153267
1.81561
-0.135806
1.49784
-0.109184
1.17909
-0.0714985
0.816253
-0.0334825
0.446198
-0.00845601
0.17416
0.0311381
-0.0194698
0.179055
-0.0553144
0.49769
-0.0925182
0.838816
-0.121959
1.15903
-0.146634
1.44227
-0.171639
1.72555
-0.194683
2.02673
-0.213686
2.37577
-0.225836
2.78122
-0.227396
3.2527
-0.219197
3.18118
-0.206223
2.6141
-0.191049
2.16429
-0.175411
1.79997
-0.154995
1.47742
-0.122513
1.1466
-0.0785663
0.772306
-0.0360648
0.403696
-0.00870239
0.146797
0.0224357
-0.0325028
0.211557
-0.0815365
0.546724
-0.128698
0.885978
-0.164738
1.19507
-0.195307
1.47284
-0.224796
1.75504
-0.249113
2.05105
-0.267551
2.39421
-0.277173
2.79084
-0.274782
3.25031
-0.260575
3.16697
-0.242672
2.5962
-0.224902
2.14652
-0.204722
1.77979
-0.177557
1.45026
-0.138228
1.10727
-0.0870349
0.721113
-0.0388703
0.355532
-0.0087994
0.116726
0.0136363
-0.0469827
0.25854
-0.120469
0.62021
-0.18338
0.948888
-0.227786
1.23947
-0.264049
1.5091
-0.294035
1.78503
-0.31587
2.07288
-0.329601
2.40794
-0.332674
2.79391
-0.323185
3.24082
-0.303711
3.14749
-0.281387
2.57388
-0.257822
2.12296
-0.233459
1.75542
-0.201935
1.41873
-0.153641
1.05898
-0.0930591
0.660532
-0.0396835
0.302156
-0.00870963
0.0857525
0.00492672
-0.0339345
0.292475
-0.0972013
0.683477
-0.155444
1.00713
-0.202494
1.28652
-0.244981
1.55159
-0.282644
1.82269
-0.317406
2.10765
-0.348381
2.43891
-0.371802
2.81733
-0.380949
3.24996
-0.371499
3.13804
-0.352304
2.55468
-0.330279
2.10093
-0.299747
1.72489
-0.251078
1.37006
-0.182063
0.989964
-0.102932
0.581401
-0.0403512
0.239575
-0.00902175
0.0544231
-0.00409503
-0.0128515
0.305326
-0.0478994
0.718525
-0.0892716
1.0485
-0.128353
1.32561
-0.16706
1.5903
-0.201118
1.85675
-0.232363
2.13889
-0.258309
2.46486
-0.274105
2.83313
-0.275223
3.25108
-0.262661
3.12548
-0.241924
2.53395
-0.211865
2.07087
-0.176318
1.68935
-0.136503
1.33025
-0.0879838
0.941444
-0.0407955
0.534213
-0.013678
0.212457
-0.00320854
0.0439536
-0.00730357
0.000122306
0.305204
-0.0248019
0.743449
-0.0544372
1.07814
-0.0843297
1.3555
-0.11532
1.62129
-0.145397
1.88683
-0.172749
2.16624
-0.194854
2.48696
-0.208529
2.8468
-0.210381
3.25293
-0.193482
3.10858
-0.163849
2.50431
-0.134426
2.04145
-0.102539
1.65746
-0.0644549
1.29216
-0.0272641
0.904253
-0.00307384
0.510023
0.00236121
0.207022
0.000552417
0.0457624
-0.00675115
0.000754282
0.304449
-0.0124912
0.756695
-0.0339369
1.09958
-0.0585595
1.38012
-0.0842658
1.64699
-0.109464
1.91202
-0.132556
2.18933
-0.15108
2.50549
-0.161304
2.85703
-0.156334
3.24796
-0.135457
3.08771
-0.110511
2.47937
-0.0797938
2.01073
-0.046397
1.62406
-0.0176829
1.26345
0.00401391
0.882557
0.0135461
0.500491
0.00966026
0.210908
0.00279371
0.0526289
-0.00395744
0.00388268
0.300567
-0.00566902
0.766246
-0.0235706
1.11749
-0.0439885
1.40054
-0.0654016
1.66841
-0.0868004
1.93342
-0.107023
2.20956
-0.123415
2.52188
-0.132325
2.86594
-0.128051
3.24369
-0.110313
3.06997
-0.0833571
2.45241
-0.0523944
1.97977
-0.0240668
1.59573
0.00368841
1.23569
0.0226345
0.863611
0.024412
0.498713
0.0145055
0.220815
0.00419539
0.0629391
0.000237948
0.00520538
0.295361
-0.000861408
0.772313
-0.016905
1.13353
-0.0352602
1.41889
-0.0543828
1.68753
-0.073271
1.95231
-0.0909521
2.22724
-0.105031
2.53596
-0.111693
2.8726
-0.105751
3.23775
-0.0867981
3.05102
-0.0610905
2.4267
-0.0352493
1.95393
-0.00741964
1.5679
0.0137723
1.2145
0.0257657
0.851617
0.0256971
0.498782
0.0149835
0.231528
0.00442563
0.0734969
0.00466358
0.00385823
0.291503
-0.000653413
0.776825
-0.014098
1.14697
-0.0308265
1.43562
-0.0479444
1.70465
-0.0649698
1.96934
-0.0811829
2.24345
-0.0945298
2.54931
-0.101824
2.8799
-0.0983211
3.23424
-0.080335
3.03303
-0.0562005
2.40257
-0.0302262
1.92795
-0.00827062
1.54595
0.0124242
1.19381
0.0248784
0.839163
0.0230811
0.500579
0.0136199
0.24099
0.00412488
0.0829919
0.00878846
0.00242117
0.289082
-0.00141569
0.780662
-0.0134673
1.15903
-0.0283757
1.45053
-0.0445722
1.72084
-0.0606744
1.98544
-0.0760657
2.25884
-0.0890467
2.56229
-0.0959531
2.8868
-0.0918248
3.23012
-0.0754606
3.01666
-0.0546354
2.38174
-0.0340395
1.90736
-0.00999619
1.52191
0.0074827
1.17633
0.0174939
0.829152
0.0180862
0.499986
0.0104161
0.24866
0.00316893
0.0902391
0.0119574
0.000158073
0.288924
-0.00379412
0.784614
-0.0145171
1.16975
-0.0279844
1.464
-0.0430458
1.7359
-0.0584022
2.00079
-0.0735076
2.27395
-0.0865275
2.57531
-0.0943142
2.89459
-0.0929066
3.22871
-0.0795997
3.00336
-0.0604073
2.36255
-0.0380884
1.88504
-0.0193858
1.5032
-0.000727189
1.15767
0.0110481
0.817377
0.011221
0.499814
0.00687447
0.253006
0.00220939
0.0949042
0.0141668
-0.000656773
0.289581
-0.00572223
0.789679
-0.015669
1.1797
-0.0282749
1.4766
-0.0427813
1.75041
-0.0577525
2.01577
-0.0726819
2.28888
-0.0860841
2.58871
-0.0951829
2.90369
-0.0950329
3.22856
-0.0834343
2.99176
-0.0668569
2.34597
-0.0484123
1.86659
-0.0269831
1.48177
-0.010494
1.14118
-0.00013359
0.807016
0.00385287
0.495827
0.00249106
0.254368
0.00112443
0.0962708
0.0152912
-0.00219732
0.291778
-0.00763507
0.795117
-0.0172517
1.18931
-0.0292642
1.48862
-0.0430339
1.76418
-0.0575542
2.03029
-0.0725369
2.30386
-0.0865892
2.60276
-0.096921
2.91402
-0.0990536
3.23069
-0.0904615
2.98317
-0.074456
2.32997
-0.0544952
1.84663
-0.0377049
1.46498
-0.0201518
1.12363
-0.00731474
0.794179
-0.00281162
0.491324
-0.000977906
0.252534
-0.000137574
0.0954305
0.0151536
-0.00356978
0.295348
-0.0093093
0.800857
-0.0185667
1.19857
-0.0301279
1.50018
-0.0435244
1.77758
-0.0578463
2.04461
-0.0729776
2.31899
-0.0877213
2.6175
-0.0995568
2.92586
-0.104694
3.23583
-0.0980255
2.9765
-0.0831566
2.3151
-0.0662189
1.82969
-0.0449254
1.44369
-0.0280348
1.10674
-0.0158823
0.782026
-0.00757843
0.48302
-0.00344694
0.248403
-0.000706581
0.0926901
0.0144471
-0.00418627
0.299534
-0.010445
0.807115
-0.0197466
1.20787
-0.0309709
1.5114
-0.0438953
1.7905
-0.0579812
2.05869
-0.0732568
2.33427
-0.0885816
2.63283
-0.101781
2.93906
-0.109464
3.24351
-0.10533
2.97236
-0.0919227
2.30169
-0.0714224
1.80919
-0.0533027
1.42557
-0.0343683
1.0878
-0.0196884
0.767347
-0.0116158
0.474948
-0.00483203
0.241619
-0.00114139
0.0889995
0.0133057
-0.0044133
0.303947
-0.011304
0.814006
-0.0205137
1.21708
-0.0314687
1.52236
-0.0441651
1.8032
-0.0580904
2.07262
-0.07346
2.34964
-0.0894538
2.64882
-0.104469
2.95407
-0.115219
3.25426
-0.114218
2.97136
-0.101358
2.28883
-0.0831152
1.79095
-0.0588857
1.40134
-0.0394328
1.06835
-0.0247194
0.752633
-0.0128733
0.463102
-0.00558005
0.234326
-0.00123866
0.0846581
0.012067
-0.00445297
0.3084
-0.0116824
0.821236
-0.02095
1.22635
-0.0316941
1.5331
-0.0440586
1.81556
-0.0577895
2.08635
-0.0732493
2.3651
-0.0898055
2.66538
-0.10603
2.9703
-0.118821
3.26705
-0.121127
2.97367
-0.110221
2.27793
-0.0879631
1.76869
-0.0653496
1.37873
-0.0421744
1.04518
-0.0244652
0.734924
-0.0134287
0.452065
-0.00496308
0.22586
-0.00102713
0.0807222
0.0110399
-0.00454895
0.312949
-0.0120356
0.828722
-0.0210864
1.2354
-0.0315992
1.54361
-0.0437589
1.82772
-0.0572961
2.09989
-0.0727787
2.38058
-0.0898407
2.68244
-0.107519
2.98797
-0.123064
3.2826
-0.128027
2.97863
-0.118175
2.26807
-0.0997539
1.75027
-0.0705843
1.34956
-0.0439274
1.01852
-0.0237412
0.714738
-0.00903034
0.437354
-0.00220574
0.219036
0.000205985
0.0783104
0.0112459
-0.00455591
0.317505
-0.0120033
0.83617
-0.0209409
1.24434
-0.0312007
1.55387
-0.0430207
1.83954
-0.0563612
2.11323
-0.0718619
2.39608
-0.0893043
2.69988
-0.10797
3.00664
-0.125258
3.29989
-0.1342
2.98757
-0.127713
2.26159
-0.104898
1.72746
-0.0769966
1.32166
-0.0438754
0.985397
-0.0169451
0.687808
-0.00141937
0.421828
0.00308429
0.214532
-0.00133389
0.0827286
0.00991197
-0.00458146
0.322087
-0.0120133
0.843602
-0.0206187
1.25294
-0.0305834
1.56384
-0.0421491
1.85111
-0.055248
2.12633
-0.070657
2.41149
-0.0883886
2.71762
-0.108032
3.02628
-0.127509
3.31936
-0.13861
2.99868
-0.134011
2.25699
-0.117519
1.71097
-0.0839306
1.28807
-0.044423
0.945889
-0.00587097
0.649256
0.0254292
0.390528
0.0372969
0.202664
0.0255602
0.0944653
0.0354722
-0.00445693
0.326544
-0.0116739
0.850818
-0.0200825
1.26135
-0.0297224
1.57348
-0.0408883
1.86227
-0.0537338
2.13917
-0.0690335
2.42679
-0.0869123
2.73549
-0.107215
3.04659
-0.128212
3.34036
-0.142432
3.0129
-0.143537
2.25809
-0.12407
1.6915
-0.0926509
1.25665
-0.0455082
0.898747
0.00316392
0.600583
0.0460746
0.347617
0.0471108
0.201628
0.0207408
0.120835
0.0562129
-0.00431911
0.330863
-0.0114189
0.857918
-0.0194461
1.26938
-0.0287228
1.58276
-0.0396127
1.87316
-0.0521516
2.15171
-0.0672416
2.44188
-0.0852045
2.75346
-0.106096
3.06748
-0.128748
3.36301
-0.144685
3.02883
-0.148156
2.26156
-0.138196
1.68154
-0.105163
1.22362
-0.0553272
0.848911
0.0174271
0.527829
0.116878
0.248167
0.192641
0.125864
0.181784
0.131693
0.237997
-0.00416488
0.335028
-0.011086
0.864839
-0.0191127
1.2774
-0.028384
1.59203
-0.0393952
1.88418
-0.0523987
2.16471
-0.0684134
2.45789
-0.0879359
2.77298
-0.111453
3.09099
-0.138357
3.38992
-0.160624
3.0511
-0.171112
2.27205
-0.160842
1.67127
-0.13224
1.19501
-0.0755442
0.792216
-0.0192291
0.471514
-0.069692
0.29863
-0.357648
0.41382
-0.941377
0.715422
0.900058
-1.60344
-0.0040005
0.339028
-0.0108115
0.87165
-0.0185526
1.28515
-0.0276559
1.60113
-0.0386236
1.89514
-0.0517275
2.17782
-0.0681364
2.4743
-0.0886207
2.79346
-0.113999
3.11637
-0.14441
3.42033
-0.170997
3.07769
-0.1855
2.28655
-0.193658
1.67943
-0.176153
1.17751
-0.149939
0.766002
-0.241702
0.563278
-0.693206
0.750133
-1.44179
1.1624
-2.04955
1.32319
1.21691
-2.3664
-0.00376533
0.342793
-0.0102477
0.878133
-0.0178205
1.29272
-0.0267297
1.61004
-0.03751
1.90592
-0.0507003
2.19101
-0.0675126
2.49111
-0.0888466
2.8148
-0.116045
3.14357
-0.15011
3.45439
-0.183522
3.1111
-0.209032
2.31206
-0.217804
1.6882
-0.207955
1.16766
-0.294235
0.852282
-0.753485
1.02253
-1.54387
1.54052
-2.10971
1.72825
-2.34903
1.5625
1.33121
-2.46334
-0.00361132
0.346405
-0.00981567
0.884337
-0.0170217
1.29992
-0.0257002
1.61872
-0.0363729
1.9166
-0.0495952
2.20423
-0.0666842
2.5082
-0.0888564
2.83697
-0.117848
3.17256
-0.155508
3.49205
-0.194125
3.14971
-0.224041
2.34198
-0.252564
1.71672
-0.333321
1.24842
-0.685964
1.20492
-1.43684
1.7734
-2.02668
2.13036
-2.26646
1.96802
-2.37969
1.67573
1.39551
-2.44398
-0.00330935
0.349714
-0.00907524
0.890103
-0.0160261
1.30688
-0.0244406
1.62713
-0.0349196
1.92707
-0.0481379
2.21745
-0.0654911
2.52556
-0.0883501
2.85983
-0.118991
3.2032
-0.160286
3.53335
-0.206841
3.19627
-0.251199
2.38634
-0.293565
1.75909
-0.474329
1.42918
-1.09353
1.82412
-1.78736
2.46724
-2.10819
2.45118
-2.25644
2.11628
-2.3385
1.75779
1.46134
-2.40433
-0.00326661
0.352981
-0.00900717
0.895843
-0.0158466
1.31371
-0.0242994
1.63559
-0.0350831
1.93786
-0.0486075
2.23097
-0.0664524
2.5434
-0.0903008
2.88368
-0.122779
3.23568
-0.167734
3.5783
-0.219949
3.24848
-0.266126
2.43252
-0.356434
1.8494
-0.747644
1.82039
-1.48972
2.5662
-1.96311
2.94062
-2.16298
2.65105
-2.26919
2.22249
-2.34623
1.83484
1.52484
-2.40973
-0.00333056
0.356311
-0.0092316
0.901745
-0.0165379
1.32102
-0.0254445
1.64449
-0.0366712
1.94909
-0.0508389
2.24514
-0.0695846
2.56215
-0.0946492
2.90874
-0.129079
3.27011
-0.177873
3.6271
-0.235056
3.30567
-0.297913
2.49537
-0.487298
2.03878
-1.04635
2.37944
-1.6778
3.19765
-1.95353
3.21635
-2.10043
2.79796
-2.21421
2.33627
-2.30771
1.92833
1.58649
-2.36936
-0.00341817
0.359729
-0.00975102
0.908077
-0.0173544
1.32862
-0.0267396
1.65388
-0.0385876
1.96093
-0.0534409
2.25999
-0.0730524
2.58176
-0.0994564
2.93515
-0.135904
3.30656
-0.188494
3.67969
-0.25133
3.3685
-0.337066
2.58111
-0.618541
2.32026
-1.26342
3.02432
-1.75272
3.68695
-1.95979
3.42342
-2.09969
2.93786
-2.22337
2.45995
-2.33379
2.03876
1.64506
-2.39236
-0.00336039
0.36309
-0.0098131
0.91453
-0.0180472
1.33686
-0.0280034
1.66383
-0.0403207
1.97325
-0.0558589
2.27553
-0.0764405
2.60234
-0.104097
2.9628
-0.14242
3.34488
-0.19776
3.73503
-0.264753
3.4355
-0.389769
2.70612
-0.77597
2.70646
-1.41004
3.65839
-1.76296
4.03987
-1.93585
3.59631
-2.03774
3.03974
-2.12623
2.54844
-2.19348
2.10601
1.63785
-2.18627
-0.0033263
0.366416
-0.010278
0.921482
-0.0187898
1.34537
-0.0292708
1.67431
-0.0423396
1.98632
-0.0586418
2.29184
-0.08012
2.62382
-0.109134
2.99182
-0.149376
3.38513
-0.206646
3.7923
-0.285685
3.51454
-0.455749
2.87619
-0.906829
3.15754
-1.46241
4.21397
-1.72435
4.30181
-1.87614
3.7481
-1.96932
3.13292
-1.97077
2.54989
-1.90178
2.03701
1.60258
-1.86651
-0.00310807
0.369524
-0.00998623
0.92836
-0.019195
1.35458
-0.030228
1.68535
-0.0436181
1.99971
-0.0603343
2.30855
-0.0822955
2.64578
-0.111662
3.02118
-0.152203
3.42567
-0.2086
3.84869
-0.293677
3.59961
-0.498209
3.08072
-0.988089
3.64742
-1.42958
4.65546
-1.59478
4.46701
-1.66189
3.81521
-1.66637
3.13741
-1.51875
2.40227
-1.01863
1.53689
0.583952
-0.00263598
0.37216
-0.0102177
0.935942
-0.0196291
1.36399
-0.031308
1.69703
-0.0458931
2.01429
-0.0640042
2.32666
-0.0877948
2.66957
-0.119922
3.05331
-0.164526
3.47027
-0.227604
3.91177
-0.331285
3.70329
-0.585832
3.33527
-1.12413
4.18572
-1.48236
5.01368
-1.58167
4.56633
-1.57957
3.8131
-1.47598
3.03382
-1.23674
2.16304
-0.632963
0.933106
-0.049011
-0.00223792
0.374398
-0.00919411
0.942898
-0.0194192
1.37422
-0.0319738
1.70958
-0.0473153
2.02964
-0.0666639
2.34601
-0.0923793
2.69529
-0.127123
3.08805
-0.175906
3.51905
-0.244999
3.98086
-0.366916
3.82521
-0.681145
3.6495
-1.24139
4.74596
-1.50305
5.27535
-1.56139
4.62467
-1.53947
3.79117
-1.33729
2.83164
-0.784212
1.60996
-0.109352
0.258246
-0.158362
-0.00165112
0.376049
-0.00894563
0.950192
-0.0190071
1.38428
-0.0320717
1.72265
-0.0485917
2.04616
-0.0693496
2.36677
-0.0969302
2.72287
-0.134585
3.12571
-0.187118
3.57159
-0.26444
4.05819
-0.413287
3.97406
-0.786245
4.02246
-1.32096
5.28068
-1.49689
5.45128
-1.52825
4.65603
-1.44005
3.70298
-1.10318
2.49477
-0.314314
0.821103
0.0251414
-0.0812098
-0.133221
-0.000454061
0.376503
-0.00649895
0.956237
-0.0173573
1.39514
-0.0313466
1.73663
-0.048411
2.06322
-0.0702637
2.38862
-0.0996648
2.75227
-0.13963
3.16567
-0.194937
3.62689
-0.280779
4.14403
-0.455095
4.14837
-0.892781
4.46014
-1.36439
5.75229
-1.48193
5.56881
-1.4845
4.6586
-1.26039
3.47887
-0.688467
1.92284
-0.0626593
0.195295
0.0306948
-0.174564
-0.102526
0.000367605
0.376136
-0.0049094
0.961514
-0.0151672
1.40539
-0.0294181
1.75089
-0.0474016
2.0812
-0.0705833
2.4118
-0.10163
2.78331
-0.144032
3.20808
-0.202407
3.68527
-0.297495
4.23912
-0.498977
4.34985
-0.986924
4.94809
-1.36188
6.12724
-1.42522
5.63216
-1.37918
4.61255
-1.09026
3.18995
-0.323981
1.15656
0.00499382
-0.133679
0.0153336
-0.184904
-0.0871927
0.0033134
0.372822
0.000473871
0.964354
-0.0108183
1.41669
-0.0259536
1.76602
-0.0439707
2.09922
-0.0679812
2.43581
-0.100348
2.81568
-0.144336
3.25206
-0.2053
3.74623
-0.308473
4.34229
-0.53568
4.57706
-1.04769
5.46011
-1.32322
6.40276
-1.36478
5.67372
-1.2256
4.47337
-0.774449
2.7388
-0.0706116
0.452726
0.0455739
-0.249865
0.0249922
-0.164322
-0.0622005
0.00482142
0.368001
0.00323896
0.965936
-0.00608893
1.42601
-0.0201354
1.78007
-0.038595
2.11768
-0.0635995
2.46082
-0.0969855
2.84907
-0.142668
3.29775
-0.20617
3.80973
-0.317331
4.45345
-0.574529
4.83426
-1.06953
5.95511
-1.26083
6.59406
-1.26997
5.68286
-1.05071
4.25411
-0.460958
2.14905
-0.0151396
0.00690826
-0.00387299
-0.261131
0.00662933
-0.174824
-0.0555711
0.0086282
0.359373
0.0100634
0.964501
0.0024983
1.43358
-0.0113996
1.79396
-0.0296528
2.13593
-0.0547032
2.48587
-0.0883186
2.88268
-0.133998
3.34343
-0.198976
3.87471
-0.316239
4.57072
-0.594311
5.11233
-1.047
6.4078
-1.16791
6.71497
-1.15487
5.66982
-0.897893
3.99714
-0.265075
1.51623
-0.070346
-0.187821
-0.0377783
-0.293699
-0.0130431
-0.19956
-0.0686142
0.0117915
0.347581
0.0170465
0.959246
0.0126534
1.43797
0.00185565
1.80476
-0.0171561
2.15495
-0.0418423
2.51056
-0.0750628
2.9159
-0.121015
3.38938
-0.186568
3.94026
-0.307808
4.69196
-0.593585
5.39811
-0.979721
6.79393
-1.04974
6.785
-0.97875
5.59882
-0.682054
3.70044
-0.0805521
0.914728
0.0039889
-0.272362
-0.00871501
-0.280995
-0.00442924
-0.203845
-0.0730434
0.0183736
0.329208
0.0299889
0.947631
0.0282643
1.4397
0.0173758
1.81565
9.94028e-05
2.17222
-0.0219325
2.53259
-0.0536087
2.94758
-0.0975285
3.4333
-0.161107
4.00384
-0.281217
4.81207
-0.556764
5.67365
-0.866718
7.10389
-0.901047
6.81933
-0.806304
5.50408
-0.45864
3.35278
0.048792
0.407295
0.0627936
-0.286364
0.0445233
-0.262725
0.0163022
-0.175624
-0.0567412
0.0244656
0.304742
0.0432034
0.928893
0.0472353
1.43566
0.040488
1.8224
0.0272322
2.18548
0.00568182
2.55414
-0.0238517
2.97711
-0.06506
3.47451
-0.125409
4.06419
-0.239809
4.92647
-0.483281
5.91713
-0.706219
7.32682
-0.738393
6.8515
-0.625232
5.39092
-0.303502
3.03105
-0.00684286
0.110636
0.0167051
-0.309911
0.0308438
-0.276864
0.0154598
-0.16024
-0.0412814
0.0346925
0.270049
0.0645641
0.899021
0.0750578
1.42517
0.0717996
1.82566
0.0619255
2.19535
0.0438555
2.57221
0.01789
3.00308
-0.0189522
3.51135
-0.0722535
4.11749
-0.168837
5.02305
-0.364553
6.11284
-0.517433
7.4797
-0.547671
6.88174
-0.454236
5.29749
-0.168323
2.74513
-0.0448768
-0.0128102
-0.0219122
-0.332876
0.00650905
-0.305285
0.00824321
-0.161974
-0.0330382
0.0441867
0.225863
0.0870128
0.856195
0.108123
1.40406
0.113045
1.82073
0.108418
2.19998
0.0943725
2.58625
0.0742445
3.02321
0.0442417
3.54135
-0.00451877
4.16625
-0.0745615
5.09309
-0.205036
6.24332
-0.287319
7.56199
-0.306689
6.90111
-0.247214
5.23801
-0.0308931
2.52881
-0.0542638
0.0105604
-0.0635719
-0.323568
-0.0218819
-0.346975
0.0144865
-0.198343
-0.0185517
0.0567288
0.169134
0.118487
0.794437
0.154097
1.36845
0.16614
1.80869
0.167361
2.19876
0.159056
2.59456
0.146191
3.03607
0.126502
3.56104
0.096355
4.1964
0.0552207
5.13423
0.0135799
6.28496
-0.0223262
7.59789
-0.0263172
6.9051
-0.0713593
5.28305
-0.104948
2.5624
-0.344089
0.249701
-0.362304
-0.305354
-0.241308
-0.46797
-0.0693502
-0.3703
-0.0879019
0.0596302
0.109504
0.148598
0.705469
0.205409
1.31164
0.233
1.7811
0.244195
2.18756
0.243265
2.59549
0.238703
3.04063
0.230091
3.56965
0.218614
4.20788
0.205233
5.14761
0.279437
6.21075
0.341513
7.53582
0.281376
6.96524
0.0532672
5.51116
-0.3193
2.93497
-0.69454
0.624941
-0.702104
-0.297789
-0.531038
-0.639036
-0.243976
-0.657363
-0.331878
0.0507657
0.058738
0.179988
0.576247
0.272126
1.2195
0.315817
1.73741
0.336849
2.16653
0.346296
2.58604
0.349634
3.0373
0.356252
3.56303
0.3696
4.19453
0.400987
5.11622
0.565394
6.04634
0.761182
7.34003
0.803596
6.92282
0.746511
5.56825
0.284223
3.39726
-0.291171
1.20034
-0.628216
0.0392556
-0.627224
-0.640029
-0.337778
-0.946809
-0.669655
0.0354906
0.0232474
0.213753
0.397985
0.338344
1.09491
0.41497
1.66078
0.454413
2.12709
0.477489
2.56296
0.488962
3.02582
0.50917
3.54283
0.54606
4.15764
0.627235
5.03505
0.938005
5.73557
1.43245
6.84558
1.82152
6.53376
2.11891
5.27086
1.86085
3.65531
1.13563
1.92556
0.516921
0.65796
0.105137
-0.228245
-0.067383
-0.774289
-0.737038
0.0312051
-0.00795772
0.233454
0.195735
0.430364
0.898001
0.537816
1.55333
0.590941
2.07396
0.626588
2.52732
0.65026
3.00215
0.682034
3.51105
0.747513
4.09216
0.889523
4.89304
1.30952
5.31558
2.06563
6.08947
2.45635
6.14304
2.6582
5.06901
2.49714
3.81637
1.97434
2.44836
1.42229
1.21001
0.881652
0.312389
0.337881
-0.230518
-0.399157
0.0278048
-0.0357625
0.172504
0.0510358
0.481169
0.589336
0.666241
1.36826
0.758196
1.98201
0.808687
2.47683
0.848397
2.96244
0.881838
3.47761
0.958962
4.01504
1.10764
4.74436
1.4776
4.94562
2.26003
5.30704
2.62852
5.77455
2.80786
4.88968
2.7158
3.90843
2.26007
2.90409
1.62284
1.84724
0.970541
0.964684
0.415478
0.324545
0.0163209
0.00842762
-0.0441901
0.0898377
-0.0303742
0.408439
0.270735
0.673045
1.10365
0.798302
1.85675
0.834819
2.44031
0.845037
2.95222
0.835643
3.487
0.835085
4.0156
0.879388
4.70005
1.00013
4.82487
1.3873
4.91988
1.59163
5.57022
1.6126
4.8687
1.5366
3.98444
1.33045
3.11024
0.985139
2.19255
0.620822
1.329
0.255245
0.690122
0.271566
-0.000697998
-0.0434921
0.0380051
-0.0690773
0.230015
0.0787247
0.504219
0.829451
0.658169
1.7028
0.710574
2.3879
0.724661
2.93814
0.719042
3.49262
0.702543
4.0321
0.718247
4.68435
0.769135
4.77398
1.00909
4.67992
1.22986
5.34945
1.23661
4.86195
1.17382
4.04723
1.02797
3.25608
0.773129
2.4474
0.480729
1.6214
0.196137
0.974714
0.467703
-0.000604843
-0.0428873
0.0229673
-0.0926494
0.108863
-0.00717089
0.355114
0.5832
0.503519
1.5544
0.569168
2.32225
0.589434
2.91787
0.592102
3.48995
0.573152
4.05105
0.564142
4.69336
0.585184
4.75294
0.730366
4.53474
0.907189
5.17263
0.905791
4.86335
0.840597
4.11242
0.7259
3.37078
0.549156
2.62414
0.332145
1.83841
0.127295
1.17956
0.594998
0.000358365
-0.0432456
0.0220811
-0.114372
0.0719436
-0.0570334
0.257773
0.39737
0.384873
1.4273
0.439869
2.26726
0.454036
2.9037
0.459334
3.48466
0.449801
4.06058
0.439159
4.704
0.439606
4.75249
0.524454
4.44989
0.647717
5.04936
0.642209
4.86886
0.575952
4.17868
0.48341
3.46332
0.358976
2.74858
0.208859
1.98853
0.0699029
1.31852
0.664901
0.0280317
-0.0712773
0.0791009
-0.165441
0.1178
-0.0957325
0.188476
0.326694