/*--------------------------------*- C++ -*----------------------------------*\
| =========                 |                                                 |
| \\      /  F ield         | OpenFOAM: The Open Source CFD Toolbox           |
|  \\    /   O peration     | Version:  v2012                                 |
|   \\  /    A nd           | Website:  www.openfoam.com                      |
|    \\/     M anipulation  |                                                 |
\*---------------------------------------------------------------------------*/
FoamFile
{
    version     2.0;
    format      ascii;
    class       volScalarField;
    location    "17";
    object      p;
}
// * * * * * * * * * * * * * * * * * * * * * * * * * * * * * * * * * * * * * //

dimensions      [0 2 -2 0 0 0 0];


internalField   nonuniform List<scalar> 
2200
(
0.404119
0.382646
0.366769
0.351148
0.336614
0.324191
0.313933
0.305854
0.300149
0.297156
0.297445
0.300937
0.307001
0.315345
0.325788
0.338345
0.352967
0.368641
0.384551
0.406042
0.336477
0.333228
0.33035
0.326289
0.320881
0.314499
0.307998
0.302159
0.297728
0.295255
0.295536
0.298536
0.30335
0.309476
0.316179
0.3227
0.328209
0.332343
0.335265
0.338527
0.296388
0.296655
0.298771
0.300193
0.300714
0.299976
0.298048
0.29548
0.293015
0.291446
0.29176
0.293892
0.296789
0.299664
0.301814
0.302712
0.302304
0.300966
0.298912
0.29867
0.273654
0.275131
0.277934
0.280615
0.283261
0.285446
0.286713
0.287017
0.286574
0.286113
0.286494
0.287604
0.288522
0.288574
0.287564
0.285563
0.283047
0.280454
0.27771
0.276252
0.259544
0.261483
0.264449
0.267442
0.270427
0.2734
0.276058
0.278122
0.279389
0.280045
0.280496
0.280591
0.279897
0.278254
0.275901
0.273147
0.270317
0.267428
0.264529
0.2626
0.252627
0.254199
0.256428
0.259028
0.261767
0.264472
0.267055
0.269518
0.271654
0.273152
0.27365
0.27305
0.271631
0.269689
0.26747
0.265027
0.262477
0.260011
0.257857
0.256287
0.249469
0.250448
0.251868
0.254111
0.256564
0.258879
0.260973
0.263004
0.264991
0.266605
0.267223
0.266723
0.26562
0.264217
0.262551
0.26055
0.258314
0.256213
0.254862
0.253887
0.247751
0.24824
0.249215
0.251256
0.253536
0.255712
0.257647
0.259428
0.261055
0.262414
0.263201
0.263207
0.262623
0.261627
0.260228
0.258451
0.256437
0.254575
0.253675
0.253194
0.246956
0.247101
0.247767
0.249341
0.251169
0.253084
0.254972
0.256768
0.258362
0.259714
0.260673
0.260976
0.2606
0.259772
0.258619
0.257224
0.255734
0.254389
0.253825
0.253637
0.245891
0.245907
0.246274
0.247135
0.248214
0.249522
0.251076
0.252819
0.254566
0.25621
0.257444
0.257954
0.257776
0.257198
0.256542
0.255802
0.255119
0.254524
0.254269
0.254255
0.243502
0.243494
0.24369
0.244113
0.244711
0.245542
0.246622
0.248072
0.249785
0.25165
0.253248
0.254214
0.254629
0.254593
0.254399
0.254267
0.254151
0.254041
0.253987
0.253982
0.240274
0.240218
0.240409
0.240775
0.241384
0.242149
0.243113
0.244444
0.246086
0.248045
0.249955
0.251412
0.252389
0.252934
0.253191
0.253342
0.253364
0.253359
0.253355
0.25336
0.236754
0.236736
0.23694
0.237394
0.238065
0.23898
0.240206
0.241717
0.243592
0.245851
0.248151
0.249982
0.25124
0.252112
0.252685
0.252949
0.253029
0.253048
0.253056
0.253063
0.23282
0.232829
0.23299
0.233408
0.234132
0.23511
0.236498
0.238302
0.24059
0.243403
0.246343
0.248683
0.250321
0.25146
0.25224
0.252708
0.252976
0.253125
0.253192
0.253189
0.228135
0.228126
0.228311
0.228721
0.229395
0.230393
0.231864
0.233906
0.236651
0.240146
0.24393
0.247034
0.249267
0.250816
0.251911
0.252638
0.253109
0.253396
0.253528
0.253521
0.222498
0.222476
0.222729
0.223195
0.223978
0.225174
0.226889
0.229297
0.232593
0.236877
0.241616
0.245629
0.248542
0.25061
0.252064
0.253043
0.253691
0.254084
0.254263
0.254255
0.215988
0.21596
0.216256
0.216875
0.217872
0.219371
0.221532
0.224556
0.228657
0.23398
0.23987
0.244906
0.248576
0.251206
0.253013
0.254227
0.25501
0.255465
0.255669
0.255654
0.208307
0.208289
0.208667
0.209499
0.2108
0.212698
0.215427
0.21924
0.22441
0.231097
0.238446
0.244684
0.249239
0.252473
0.254689
0.256189
0.257167
0.257749
0.258009
0.257991
0.199354
0.199327
0.199783
0.200762
0.202375
0.204794
0.208255
0.213084
0.219609
0.228005
0.237165
0.244879
0.250518
0.254516
0.257285
0.25917
0.260392
0.261105
0.261413
0.26138
0.188399
0.188393
0.189032
0.190329
0.192404
0.195469
0.199885
0.206047
0.214311
0.224845
0.236204
0.245709
0.252641
0.257551
0.260946
0.263243
0.264752
0.265651
0.266042
0.266008
0.175189
0.175152
0.17594
0.177587
0.180287
0.184332
0.190074
0.197994
0.208499
0.22168
0.235681
0.247305
0.255766
0.261764
0.26594
0.268787
0.270646
0.271732
0.272191
0.272134
0.158376
0.158433
0.15959
0.161857
0.165503
0.170884
0.178466
0.188796
0.202192
0.218629
0.23578
0.249891
0.260141
0.267428
0.272496
0.275949
0.278226
0.279564
0.280136
0.28007
0.137331
0.137324
0.1389
0.142084
0.147153
0.154597
0.164818
0.178352
0.195394
0.215752
0.236553
0.253497
0.265782
0.274554
0.280738
0.285007
0.287837
0.28951
0.290193
0.29007
0.10948
0.109852
0.112375
0.117077
0.124441
0.134987
0.148897
0.166649
0.188204
0.213184
0.238159
0.2583
0.27291
0.283418
0.290898
0.296142
0.29965
0.301691
0.302556
0.30241
0.0722771
0.0729103
0.0770986
0.0850197
0.0964506
0.111631
0.130733
0.153927
0.180916
0.211216
0.240819
0.264431
0.281555
0.293992
0.302987
0.309425
0.313903
0.31664
0.317757
0.317453
0.0227017
0.0233183
0.0312338
0.0446469
0.0626681
0.0847054
0.110684
0.140499
0.173824
0.210052
0.244582
0.27184
0.291664
0.306222
0.316992
0.324929
0.330548
0.333912
0.335052
0.334639
-0.0450391
-0.0412853
-0.0243396
-0.00159939
0.0252695
0.0556467
0.089476
0.126735
0.167147
0.210011
0.250181
0.281864
0.305229
0.32276
0.336056
0.346248
0.353992
0.358983
0.360591
0.360412
-0.124746
-0.111524
-0.0824132
-0.0493733
-0.0127744
0.026175
0.0681782
0.113276
0.161072
0.210993
0.257508
0.294346
0.321864
0.343036
0.359737
0.372993
0.383647
0.391093
0.395224
0.395835
-0.190444
-0.173493
-0.136567
-0.0952534
-0.0499902
-0.0025093
0.0477393
0.100524
0.155439
0.212118
0.264506
0.30596
0.337105
0.36116
0.380225
0.395463
0.407306
0.416158
0.420255
0.420627
-0.239315
-0.224297
-0.182434
-0.135875
-0.0838757
-0.0291262
0.0284358
0.0881796
0.149785
0.212883
0.270745
0.31624
0.350111
0.375979
0.396103
0.411972
0.424277
0.432974
0.437046
0.437588
-0.279479
-0.26503
-0.220547
-0.170801
-0.113565
-0.0531077
0.0104902
0.0763412
0.144115
0.213107
0.275797
0.324398
0.360007
0.386791
0.407218
0.423142
0.435515
0.444183
0.448592
0.4491
-0.313964
-0.299268
-0.252785
-0.20071
-0.13939
-0.0745549
-0.0060551
0.0650581
0.138233
0.212271
0.278964
0.330088
0.36704
0.394479
0.415306
0.431391
0.443908
0.452593
0.457155
0.457509
-0.344164
-0.329454
-0.280899
-0.226523
-0.162027
-0.0938892
-0.0214176
0.0541437
0.131935
0.210496
0.281071
0.33474
0.37302
0.401227
0.422416
0.43851
0.450949
0.459808
0.464052
0.464423
-0.371378
-0.356828
-0.306337
-0.249502
-0.182333
-0.111605
-0.0358822
0.0434402
0.125296
0.208094
0.28243
0.338488
0.378301
0.407273
0.428992
0.445348
0.457644
0.466505
0.470595
0.470909
-0.396292
-0.381886
-0.330082
-0.270848
-0.201233
-0.128193
-0.0496726
0.032888
0.118362
0.205134
0.283179
0.34219
0.383798
0.413745
0.435696
0.452024
0.464219
0.472874
0.477074
0.477475
-0.419812
-0.404985
-0.352626
-0.291386
-0.219472
-0.144122
-0.0630083
0.0224365
0.111209
0.201871
0.283943
0.345836
0.388941
0.419667
0.442197
0.458813
0.471122
0.479684
0.483837
0.484199
-0.441899
-0.426873
-0.374123
-0.311419
-0.237465
-0.159808
-0.0761768
0.0119557
0.103838
0.198149
0.283924
0.34855
0.393843
0.425935
0.449018
0.465886
0.478219
0.486542
0.490756
0.491147
-0.462717
-0.447759
-0.394617
-0.330838
-0.255312
-0.175541
-0.0895232
0.00114259
0.0958386
0.19341
0.282713
0.350939
0.398784
0.4323
0.456107
0.473264
0.48571
0.494119
0.498098
0.498418
-0.48286
-0.467771
-0.414224
-0.34955
-0.272878
-0.191363
-0.103262
-0.0103118
0.0869504
0.187716
0.280991
0.352737
0.40304
0.438516
0.46348
0.481172
0.49371
0.50171
0.505692
0.505974
-0.502747
-0.48705
-0.433114
-0.367572
-0.290006
-0.207153
-0.117346
-0.0223838
0.0773245
0.181172
0.278162
0.353458
0.407491
0.445386
0.47163
0.489688
0.502179
0.510198
0.513842
0.513932
-0.522315
-0.505815
-0.451476
-0.385022
-0.306634
-0.22272
-0.131526
-0.0348192
0.0670997
0.173611
0.273909
0.353384
0.411025
0.452109
0.480356
0.499216
0.511514
0.518748
0.52207
0.522037
-0.541359
-0.524166
-0.469413
-0.402026
-0.322797
-0.237941
-0.145586
-0.0474328
0.0563286
0.165183
0.268798
0.352371
0.413913
0.458525
0.489573
0.509791
0.521798
0.528229
0.530602
0.530282
-0.55976
-0.542085
-0.486924
-0.418644
-0.338577
-0.252838
-0.159473
-0.0601371
0.0451348
0.156049
0.262499
0.349675
0.415533
0.464581
0.499574
0.522225
0.534268
0.538064
0.538056
0.537904
-0.577513
-0.55952
-0.50395
-0.434857
-0.35402
-0.267468
-0.173234
-0.0729238
0.0335972
0.146123
0.254719
0.345313
0.415649
0.469576
0.50952
0.536388
0.549967
0.551397
0.546646
0.543917
-0.594606
-0.576336
-0.520385
-0.450592
-0.369109
-0.281863
-0.186888
-0.0857569
0.0217881
0.1356
0.246084
0.33979
0.414043
0.473096
0.51898
0.552517
0.571738
0.569684
0.56185
0.566569
-0.611041
-0.592502
-0.536151
-0.46576
-0.383765
-0.295961
-0.200379
-0.0985726
0.00976414
0.124615
0.236462
0.331986
0.409703
0.473915
0.526234
0.567916
0.598295
0.591864
0.548072
0.497819
-0.626744
-0.607996
-0.55127
-0.480405
-0.398045
-0.309849
-0.213841
-0.111591
-0.00274123
0.112766
0.225459
0.322235
0.402433
0.470973
0.529813
0.581257
0.626851
0.65343
0.679185
0.73001
-0.641676
-0.622913
-0.565842
-0.494651
-0.412087
-0.323702
-0.22751
-0.125098
-0.0160824
0.0996759
0.212692
0.309804
0.391385
0.46261
0.523124
0.574055
0.610853
0.629264
0.612371
0.617731
-0.65578
-0.637204
-0.579841
-0.508457
-0.425805
-0.337399
-0.24123
-0.138894
-0.0300625
0.0854404
0.197926
0.29413
0.373866
0.444222
0.502377
0.546014
0.554344
0.521286
0.470455
0.464155
-0.669115
-0.650864
-0.593279
-0.52184
-0.439203
-0.350926
-0.254957
-0.152965
-0.0446901
0.0699353
0.181231
0.27594
0.352759
0.416215
0.466332
0.483974
0.455057
0.388651
0.318724
0.311393
-0.68173
-0.663871
-0.606176
-0.534832
-0.452311
-0.364307
-0.268713
-0.1673
-0.0599262
0.0533722
0.163023
0.254229
0.325314
0.375055
0.401288
0.391172
0.344595
0.243934
0.156322
0.141426
-0.694076
-0.676639
-0.618914
-0.547791
-0.465483
-0.377858
-0.282767
-0.182115
-0.0759178
0.035507
0.14221
0.229467
0.292912
0.327488
0.319324
0.280659
0.175236
0.0507741
-0.0588085
-0.0807813
-0.706987
-0.689922
-0.632162
-0.561314
-0.479275
-0.392043
-0.297521
-0.197743
-0.0929079
0.0162623
0.119602
0.201963
0.257449
0.268857
0.225091
0.134248
-0.0296952
-0.187294
-0.317646
-0.342268
-0.720951
-0.704147
-0.646212
-0.575613
-0.493854
-0.406982
-0.313058
-0.214237
-0.110917
-0.00442009
0.0946781
0.171128
0.215575
0.199065
0.128043
-0.0308429
-0.247705
-0.473791
-0.661698
-0.708559
-0.735995
-0.719357
-0.661113
-0.59069
-0.509176
-0.422628
-0.329309
-0.231522
-0.129847
-0.0261949
0.0673299
0.138234
0.166979
0.116962
0.00934848
-0.202475
-0.462194
-0.780469
-1.12501
-1.26535
-0.752176
-0.735645
-0.676938
-0.606608
-0.525272
-0.439018
-0.346309
-0.249612
-0.149713
-0.049166
0.0389671
0.103709
0.115933
0.0270319
-0.134744
-0.378002
-0.651184
-1.04031
-1.67498
-2.27165
-0.769486
-0.752992
-0.693741
-0.623403
-0.54213
-0.456124
-0.363972
-0.2684
-0.170356
-0.0728492
0.00970002
0.0652219
0.0638413
-0.0556804
-0.278502
-0.563707
-0.81387
-1.10464
-1.74721
-3.42906
-0.787969
-0.771421
-0.711575
-0.641172
-0.559885
-0.474092
-0.382495
-0.288063
-0.191988
-0.0976302
-0.0206496
0.0255152
0.00222908
-0.12676
-0.393526
-0.696356
-0.894728
-0.977301
-1.01921
-1.45352
-0.807567
-0.790879
-0.730562
-0.660213
-0.578872
-0.493335
-0.402385
-0.309262
-0.21549
-0.125081
-0.0534396
-0.0164126
-0.0610214
-0.180115
-0.456886
-0.732718
-0.895354
-0.931863
-0.888511
-0.939433
-0.828268
-0.811263
-0.75066
-0.680623
-0.599117
-0.51389
-0.423729
-0.332005
-0.240744
-0.154716
-0.087007
-0.0593669
-0.117771
-0.233469
-0.50346
-0.735724
-0.863314
-0.897692
-0.92977
-0.948081
-0.849717
-0.832436
-0.771928
-0.702346
-0.620486
-0.535707
-0.446466
-0.356196
-0.267656
-0.186286
-0.122956
-0.102278
-0.173267
-0.293003
-0.541096
-0.737892
-0.850347
-0.833301
-0.858592
-0.857556
-0.8717
-0.854248
-0.794474
-0.725102
-0.642746
-0.558623
-0.470444
-0.381703
-0.29583
-0.219054
-0.16024
-0.147166
-0.22497
-0.362784
-0.581274
-0.747555
-0.843026
-0.843722
-0.846496
-0.852118
-0.89385
-0.87645
-0.817881
-0.748509
-0.665622
-0.582406
-0.495318
-0.40789
-0.324513
-0.252522
-0.197455
-0.191619
-0.276519
-0.442004
-0.620337
-0.749252
-0.823188
-0.869029
-0.830606
-0.838071
-0.916014
-0.898846
-0.841297
-0.771963
-0.688836
-0.606748
-0.520564
-0.434564
-0.353758
-0.28603
-0.234225
-0.231767
-0.333609
-0.522966
-0.656498
-0.74432
-0.761176
-0.825114
-0.790639
-0.797704
-0.937534
-0.920907
-0.864117
-0.794877
-0.71208
-0.631232
-0.545631
-0.461215
-0.382508
-0.31838
-0.272046
-0.264011
-0.393046
-0.613119
-0.694741
-0.694665
-0.665813
-0.715039
-0.743341
-0.753425
-0.957852
-0.94188
-0.885715
-0.816447
-0.735199
-0.65515
-0.569559
-0.486679
-0.409377
-0.346912
-0.309142
-0.291099
-0.458248
-0.727732
-0.800324
-0.716203
-0.705101
-0.729459
-0.773119
-0.779691
-0.976006
-0.961013
-0.905744
-0.836724
-0.757652
-0.676884
-0.591637
-0.51088
-0.434649
-0.370697
-0.342512
-0.304626
-0.512478
-0.863554
-1.1247
-1.16756
-1.16123
-1.13209
-1.1104
-1.08916
-0.991086
-0.977207
-0.923523
-0.855126
-0.777191
-0.695968
-0.61193
-0.532308
-0.45669
-0.389605
-0.376001
-0.317158
-0.552762
-0.985251
-1.55393
-2.02524
-2.16192
-2.0954
-1.95736
-1.85337
-1.00195
-0.989457
-0.937864
-0.870096
-0.792592
-0.711948
-0.629231
-0.548744
-0.473352
-0.402164
-0.394972
-0.335511
-0.560179
-0.969858
-1.55394
-2.10428
-2.24568
-2.11135
-1.98676
-1.90461
-1.00734
-0.99622
-0.947167
-0.880169
-0.803097
-0.72316
-0.641664
-0.560142
-0.483854
-0.41021
-0.388498
-0.330118
-0.468979
-0.652086
-0.862768
-1.00512
-0.984789
-0.894344
-0.776155
-0.664458
-1.0054
-0.995792
-0.949779
-0.883877
-0.807756
-0.728931
-0.648269
-0.566981
-0.487332
-0.403708
-0.356645
-0.290381
-0.243596
-0.0842125
0.113937
0.275385
0.43552
0.561555
0.634079
0.664622
-0.994524
-0.986436
-0.944619
-0.88049
-0.80583
-0.728727
-0.648845
-0.568346
-0.483202
-0.385542
-0.3
-0.206953
0.00955105
0.376143
0.782991
1.11666
1.36159
1.50878
1.56859
1.58678
-0.972602
-0.965952
-0.929337
-0.86825
-0.79604
-0.721571
-0.644051
-0.564287
-0.475376
-0.366534
-0.228143
-0.109032
0.180599
0.57801
1.0133
1.37879
1.64434
1.79832
1.85635
1.86696
-0.939723
-0.934746
-0.903284
-0.846171
-0.777698
-0.707115
-0.634852
-0.559334
-0.474844
-0.365013
-0.1994
-0.0397433
0.225413
0.560367
0.943408
1.2566
1.50866
1.65584
1.71663
1.73148
-0.893424
-0.889665
-0.864275
-0.813502
-0.750909
-0.686145
-0.62237
-0.555205
-0.479371
-0.394193
-0.231509
-0.0309263
0.164711
0.432407
0.743745
1.00525
1.22165
1.35221
1.41263
1.43184
-0.833629
-0.830713
-0.810756
-0.768122
-0.715227
-0.661119
-0.61108
-0.562047
-0.515888
-0.465146
-0.3611
-0.213651
-0.0129055
0.235079
0.493588
0.708854
0.880866
0.991193
1.0407
1.05948
-0.760213
-0.759396
-0.744917
-0.713577
-0.674382
-0.636181
-0.604791
-0.584213
-0.58646
-0.609335
-0.636822
-0.527773
-0.287158
-0.0295536
0.214508
0.410807
0.560469
0.645523
0.678749
0.689758
-0.679285
-0.680218
-0.672199
-0.654217
-0.630624
-0.609456
-0.598146
-0.607417
-0.661691
-0.775946
-0.931639
-0.847727
-0.578484
-0.299223
-0.0353794
0.165616
0.288824
0.34822
0.370674
0.375929
-0.600968
-0.601557
-0.598052
-0.590089
-0.580051
-0.573359
-0.578697
-0.609796
-0.703407
-0.892688
-1.16073
-1.12722
-0.774851
-0.502479
-0.231022
-0.0519909
0.0508779
0.0983707
0.117402
0.123816
-0.518527
-0.519915
-0.519426
-0.518007
-0.516772
-0.520185
-0.535057
-0.573075
-0.679986
-0.877663
-1.18388
-1.10747
-0.814865
-0.538832
-0.331401
-0.202107
-0.116171
-0.0845238
-0.06848
-0.0636284
-0.430492
-0.432415
-0.43274
-0.43354
-0.436557
-0.443263
-0.46013
-0.499429
-0.591911
-0.761404
-0.975527
-0.869677
-0.628108
-0.446145
-0.32545
-0.244135
-0.204689
-0.186228
-0.176025
-0.173529
-0.338208
-0.339919
-0.341272
-0.342433
-0.345317
-0.351369
-0.364599
-0.393301
-0.456906
-0.570882
-0.691342
-0.565401
-0.3984
-0.301569
-0.239984
-0.210209
-0.203809
-0.199676
-0.197472
-0.197301
-0.247997
-0.249271
-0.250768
-0.251904
-0.253216
-0.256283
-0.262894
-0.277759
-0.31052
-0.368914
-0.425213
-0.311298
-0.230259
-0.191966
-0.154368
-0.16105
-0.165527
-0.168593
-0.170489
-0.17162
-0.167055
-0.167874
-0.169237
-0.170005
-0.170164
-0.170228
-0.170383
-0.172764
-0.179665
-0.192508
-0.179475
-0.130506
-0.115086
-0.104374
-0.102785
-0.113119
-0.119282
-0.12432
-0.127115
-0.128458
-0.100188
-0.100661
-0.101713
-0.102344
-0.10205
-0.1005
-0.0967777
-0.0911171
-0.0817708
-0.0622663
-0.0304115
-0.0164986
-0.0275808
-0.0383801
-0.0537277
-0.0657695
-0.073378
-0.0788804
-0.0817363
-0.0830628
-0.048972
-0.049218
-0.0499579
-0.0504778
-0.0501801
-0.048506
-0.0439237
-0.0356269
-0.0216806
0.00276125
0.034274
0.0358671
0.0182461
0.0018287
-0.0161074
-0.0278446
-0.0354569
-0.0404324
-0.0429851
-0.0441646
-0.0126271
-0.0127371
-0.0132475
-0.0136537
-0.0133895
-0.0121347
-0.00837158
-0.000919431
0.0118067
0.0322802
0.0560787
0.0536861
0.0375827
0.0226249
0.00764006
-0.00201499
-0.00832857
-0.0122577
-0.0142964
-0.015218
0.0114282
0.0113673
0.0110288
0.0107034
0.0110212
0.0120178
0.0147207
0.0201464
0.0294909
0.044228
0.0591933
0.0574412
0.0444004
0.032558
0.0214606
0.0142201
0.00945551
0.0065175
0.00498395
0.00431283
0.0267057
0.0266446
0.026406
0.0260923
0.0263367
0.0271245
0.0291076
0.0327836
0.0388521
0.0481822
0.0563959
0.0551929
0.0453286
0.0367131
0.028941
0.0236855
0.0201429
0.0179182
0.0167755
0.0162969
0.0361074
0.0360274
0.0357837
0.0353317
0.0352463
0.035597
0.0369325
0.0393808
0.0432467
0.0487399
0.0526795
0.0510897
0.0440225
0.0379175
0.0324875
0.0285896
0.0258494
0.0240801
0.0232021
0.0228602
0.0411167
0.0410262
0.0407143
0.0400578
0.0395512
0.0393245
0.0398682
0.0412431
0.0436692
0.0469001
0.0485999
0.0468565
0.0418483
0.0374358
0.0335201
0.030533
0.0283523
0.026911
0.0262185
0.0259673
0.0425039
0.0424189
0.0420642
0.041312
0.0405712
0.0399562
0.0398059
0.0402068
0.0414621
0.0432576
0.0439323
0.0423959
0.0388816
0.035658
0.0327953
0.0305257
0.0288305
0.0276887
0.0271505
0.0269638
0.0413154
0.0412442
0.0409138
0.0402158
0.0394714
0.0387706
0.0382697
0.0380415
0.0383722
0.0390603
0.0390932
0.0377689
0.0352884
0.0329462
0.0308769
0.0292068
0.0279397
0.027073
0.0266714
0.0265365
0.0386528
0.0386011
0.0383307
0.0377483
0.0370958
0.0364549
0.0358735
0.0354068
0.035193
0.0351039
0.034616
0.0333595
0.0315176
0.0297975
0.0282986
0.0270797
0.0261438
0.0254973
0.025204
0.025107
0.0351893
0.035157
0.0349338
0.0344369
0.0338582
0.0332692
0.0326767
0.0321552
0.031712
0.0312497
0.0304843
0.0292882
0.0278492
0.0265433
0.0254139
0.0244922
0.0237785
0.0232813
0.0230611
0.022991
0.0311572
0.0311377
0.0309479
0.0305151
0.0299975
0.0294435
0.0288515
0.0283126
0.0277838
0.0272208
0.026423
0.0253703
0.0242327
0.0232147
0.0223338
0.0216165
0.0210605
0.0206703
0.0205024
0.0204516
0.0267135
0.0267008
0.0265424
0.0261746
0.0257349
0.025237
0.0246846
0.024158
0.0235996
0.0230384
0.0223183
0.0214534
0.020564
0.0197765
0.0190969
0.0185459
0.0181187
0.0178157
0.0176877
0.0176492
0.0220186
0.0220114
0.0218904
0.0215985
0.0212515
0.0208365
0.0203671
0.0199
0.0193679
0.0188403
0.0182105
0.0175195
0.0168371
0.0162425
0.0157301
0.0153164
0.014997
0.0147707
0.0146776
0.0146502
0.0172062
0.0172011
0.0171152
0.0168957
0.0166406
0.0163195
0.0159562
0.0155857
0.0151332
0.0146815
0.0141508
0.0136098
0.0130969
0.0126609
0.012286
0.0119841
0.0117513
0.0115862
0.011519
0.0114991
0.0123466
0.012345
0.0122874
0.01213
0.0119473
0.0117161
0.0114574
0.0111915
0.0108509
0.0105168
0.0101185
0.00972873
0.00936373
0.00905984
0.00879948
0.00858867
0.00842592
0.00831095
0.0082651
0.00825297
0.00744235
0.00744238
0.00741023
0.00730881
0.00720195
0.0070611
0.0068977
0.00674016
0.00651817
0.00632047
0.00607342
0.00584278
0.0056233
0.00544577
0.00528994
0.00516279
0.00506393
0.00499329
0.00496763
0.00496029
0.00250984
0.00251135
0.00250321
0.00246004
0.00242622
0.00236926
0.00230064
0.00225679
0.00216491
0.00211066
0.00202272
0.00195064
0.00187183
0.00181672
0.00176149
0.00171694
0.00167929
0.00164778
0.00163923
0.00163682
-1.60896
-0.692045
-0.415891
-0.117405
0.0861087
0.26319
0.413682
0.566703
0.729157
0.8069
-0.563011
-0.120632
-0.0849934
0.116619
0.25995
0.388284
0.500641
0.599111
0.633896
0.588059
-0.140058
0.0939884
0.14534
0.288399
0.38871
0.479739
0.555222
0.611397
0.617952
0.6289
0.116568
0.276179
0.31441
0.428125
0.491671
0.556945
0.607012
0.642188
0.653171
0.675785
0.314339
0.424674
0.454043
0.534171
0.579352
0.626108
0.661252
0.687007
0.69807
0.728721
0.466017
0.542476
0.573003
0.622786
0.660514
0.693528
0.719722
0.741129
0.756312
0.783964
0.592636
0.647124
0.673861
0.704898
0.734588
0.759872
0.781059
0.800926
0.816443
0.842531
0.700832
0.740352
0.762388
0.784367
0.806634
0.827079
0.845169
0.863735
0.878814
0.902299
0.798041
0.827651
0.845337
0.861392
0.878428
0.895089
0.910974
0.928153
0.941717
0.964015
0.887974
0.909187
0.924636
0.93829
0.952296
0.966395
0.979969
0.994613
1.0062
1.02592
0.974848
0.990857
1.00496
1.01706
1.02922
1.04096
1.05216
1.06393
1.07162
1.08844
1.06061
1.07361
1.08747
1.09924
1.1099
1.11974
1.12856
1.1368
1.14036
1.15162
1.15021
1.1612
1.17474
1.18399
1.19145
1.19862
1.20582
1.21243
1.21344
1.22085
1.24881
1.25356
1.2616
1.26607
1.2693
1.27376
1.27974
1.28753
1.29138
1.30126
1.36215
1.34842
1.34095
1.33526
1.33256
1.33396
1.34052
1.35298
1.36766
1.3973
1.48283
1.42725
1.39634
1.37927
1.37116
1.37119
1.37982
1.39922
1.43129
1.50045
)
;

boundaryField
{
    wall-4
    {
        type            zeroGradient;
    }
    pressure-outlet-7
    {
        type            fixedValue;
        value           uniform 0;
    }
    velocity-inlet-6
    {
        type            zeroGradient;
    }
    velocity-inlet-5
    {
        type            zeroGradient;
    }
    frontAndBackPlanes
    {
        type            empty;
    }
}


// ************************************************************************* //
