/*--------------------------------*- C++ -*----------------------------------*\
| =========                 |                                                 |
| \\      /  F ield         | OpenFOAM: The Open Source CFD Toolbox           |
|  \\    /   O peration     | Version:  v2012                                 |
|   \\  /    A nd           | Website:  www.openfoam.com                      |
|    \\/     M anipulation  |                                                 |
\*---------------------------------------------------------------------------*/
FoamFile
{
    version     2.0;
    format      ascii;
    class       surfaceScalarField;
    location    "17";
    object      phi;
}
// * * * * * * * * * * * * * * * * * * * * * * * * * * * * * * * * * * * * * //

dimensions      [0 3 -1 0 0 0 0];
oriented        oriented;


internalField   nonuniform List<scalar> 
4262
(
0.107051
0.470937
0.0955128
0.705124
0.069188
0.858628
0.0470736
1.02088
0.0307551
1.21483
0.0195955
1.44938
0.0120346
1.73342
0.00674333
2.07633
0.00300124
2.48899
-0.000137832
2.98543
-0.00336732
2.98552
-0.00718649
2.48906
-0.0124862
2.07634
-0.0199668
1.73334
-0.0310321
1.44928
-0.0472836
1.21477
-0.0693373
1.02082
-0.095598
0.858564
-0.1071
0.705088
0.470888
0.112547
0.358391
0.13469
0.682981
0.119619
0.873698
0.0966472
1.04385
0.0728946
1.23859
0.0512712
1.471
0.0336921
1.751
0.0203253
2.08969
0.00937826
2.49993
-0.000788431
2.9956
-0.0108944
2.99563
-0.0216145
2.49978
-0.0347064
2.08943
-0.0520882
1.75073
-0.0735879
1.47078
-0.097213
1.23839
-0.120065
1.04367
-0.135037
0.873535
-0.112734
0.682785
0.358154
0.0917285
0.266662
0.124271
0.650438
0.1205
0.877469
0.104639
1.05971
0.086185
1.25704
0.0668925
1.4903
0.0478241
1.77007
0.0300814
2.10744
0.0141742
2.51584
-0.00122306
3.011
-0.0164931
3.0109
-0.0320486
2.51534
-0.0495663
2.10695
-0.0684338
1.76959
-0.0874914
1.48984
-0.105761
1.25666
-0.121446
1.05935
-0.124963
0.877052
-0.0920546
0.649877
0.266099
0.0629528
0.203709
0.103002
0.610388
0.104688
0.875784
0.0937427
1.07066
0.0803301
1.27045
0.0661633
1.50446
0.0500403
1.78619
0.0329096
2.12457
0.0156871
2.53306
-0.00183048
3.02851
-0.0192137
3.02828
-0.036162
2.53229
-0.0528792
2.12366
-0.06863
1.78534
-0.0824112
1.50362
-0.0954056
1.26966
-0.105949
1.0699
-0.103855
0.874957
-0.0633164
0.609339
0.202783
0.035674
0.168035
0.0764469
0.569615
0.0855882
0.866643
0.078403
1.07784
0.0670019
1.28186
0.0559372
1.51553
0.0442996
1.79783
0.030829
2.13804
0.015261
2.54863
-0.00244329
3.04622
-0.0199435
3.04578
-0.0351354
2.54748
-0.0480917
2.13662
-0.0590987
1.79635
-0.0695301
1.51405
-0.0804578
1.28059
-0.0871678
1.07661
-0.0774931
0.865282
-0.0360536
0.5679
0.166729
0.0179085
0.150127
0.0532562
0.534268
0.0666283
0.853271
0.0636156
1.08085
0.0548628
1.29061
0.0450184
1.52537
0.0350195
1.80783
0.0242132
2.14884
0.011864
2.56098
-0.00311328
3.06119
-0.0177451
3.06041
-0.0294374
2.55917
-0.0393835
2.14657
-0.0487466
1.80571
-0.0581269
1.52344
-0.0663882
1.28885
-0.0688486
1.07907
-0.0546693
0.851103
-0.0183674
0.531598
0.148362
0.00873052
0.141396
0.0371735
0.505825
0.0520073
0.838437
0.0519286
1.08093
0.0455985
1.29694
0.0368937
1.53408
0.02775
1.81698
0.0181827
2.15841
0.00791653
2.57125
-0.00411667
3.07323
-0.0157892
3.07209
-0.0253562
2.56874
-0.0341418
2.15535
-0.0423326
1.81391
-0.0501378
1.53124
-0.0555787
1.29429
-0.0547579
1.07825
-0.0388054
0.835151
-0.00928956
0.502082
0.139072
0.00327335
0.138123
0.0223801
0.486718
0.0358677
0.824949
0.0381927
1.07861
0.0350658
1.30007
0.0293638
1.53978
0.0224898
1.82385
0.0145568
2.16634
0.00541951
2.58038
-0.00523923
3.08389
-0.0155167
3.08236
-0.0238057
2.57703
-0.0305166
2.16206
-0.0358735
1.81926
-0.0404601
1.53583
-0.0424215
1.29625
-0.0388806
1.07471
-0.0240851
0.820355
-0.00387627
0.481873
0.135196
-0.000177818
0.138301
0.00920374
0.477337
0.019146
0.815007
0.0228434
1.07491
0.0228073
1.3001
0.0206327
1.54195
0.016983
1.8275
0.0111081
2.17222
0.00310408
2.58839
-0.00662266
3.09361
-0.0157397
3.09148
-0.0222946
2.58358
-0.0265649
2.16633
-0.0288127
1.82151
-0.0294039
1.53642
-0.0279501
1.29479
-0.0228136
1.06957
-0.011429
0.80897
-0.000608466
0.471052
0.134588
-0.00121306
0.139514
0.00237337
0.47375
0.00880927
0.808571
0.0127188
1.071
0.0143376
1.29848
0.0139151
1.54238
0.0117062
1.82971
0.00736699
2.17656
0.000658849
2.59509
-0.00795211
3.10222
-0.0158846
3.09941
-0.020939
2.58864
-0.02358
2.16897
-0.0242202
1.82215
-0.0225106
1.53471
-0.0191113
1.2914
-0.013435
1.06389
-0.00509693
0.800632
0.000204874
0.465751
0.134793
-0.000732099
0.140246
0.000501141
0.472517
0.0047829
0.804289
0.00850499
1.06728
0.0106468
1.29634
0.0107633
1.54226
0.0084444
1.83203
0.00411735
2.18089
-0.00227026
2.60148
-0.0102164
3.11017
-0.017354
3.10655
-0.0218887
2.59317
-0.0241145
2.1712
-0.0236211
1.82166
-0.0212965
1.53238
-0.0169249
1.28702
-0.0109274
1.0579
-0.00410663
0.793812
-0.000474448
0.462118
0.134318
-0.000595692
0.140842
-0.000482116
0.472403
0.00290137
0.800906
0.00667543
1.0635
0.00922881
1.29379
0.00943352
1.54205
0.00695574
1.8345
0.00196844
2.18587
-0.00512321
2.60857
-0.013374
3.11842
-0.0204951
3.11367
-0.0249555
2.59763
-0.0259976
2.17224
-0.0249206
1.82058
-0.021972
1.52944
-0.0165933
1.28165
-0.0100707
1.05137
-0.00402529
0.787766
-0.000939583
0.459033
0.133379
-0.00111786
0.141959
-0.00193437
0.47322
-9.39316e-05
0.799065
0.00335608
1.06005
0.00618027
1.29096
0.006523
1.54171
0.0041137
1.83691
-0.000921046
2.19091
-0.00812133
2.61577
-0.016425
3.12672
-0.0233761
3.12062
-0.0273302
2.60159
-0.028137
2.17305
-0.0268967
1.81934
-0.0224869
1.52503
-0.0159982
1.27516
-0.00893974
1.04432
-0.00345889
0.782285
-0.000900515
0.456474
0.132478
-0.00154599
0.143505
-0.00353295
0.475207
-0.0032288
0.798761
-0.000341375
1.05717
0.00190833
1.28871
0.00197648
1.54164
-0.000752272
1.83964
-0.00586815
2.19602
-0.0128447
2.62275
-0.0206355
3.13452
-0.0266686
3.12666
-0.0295531
2.60447
-0.0297002
2.17319
-0.0272021
1.81684
-0.0219788
1.5198
-0.0151523
1.26833
-0.00822671
1.03739
-0.00328732
0.777346
-0.000907221
0.454094
0.131571
-0.00185973
0.145365
-0.00471038
0.478057
-0.0056328
0.799683
-0.00477158
1.05631
-0.00372118
1.28766
-0.00426356
1.54219
-0.00713203
1.84251
-0.0121055
2.201
-0.0186594
2.62931
-0.0257115
3.14157
-0.0305419
3.13149
-0.0321634
2.60609
-0.0311331
2.17216
-0.0277327
1.81344
-0.0223744
1.51444
-0.0157892
1.26174
-0.00922606
1.03083
-0.00433851
0.772458
-0.00140449
0.45116
0.130166
-0.0020372
0.147402
-0.00553525
0.481555
-0.00743984
0.801588
-0.00787296
1.05674
-0.00841348
1.2882
-0.0104606
1.54423
-0.0144128
1.84646
-0.0199455
2.20653
-0.0264411
2.6358
-0.0326844
3.14781
-0.0360768
3.13488
-0.0359991
2.60601
-0.0335302
2.1697
-0.0288579
1.80877
-0.0228841
1.50847
-0.0162986
1.25516
-0.0101123
1.02464
-0.0052944
0.767641
-0.00182217
0.447688
0.128344
-0.00273327
0.150136
-0.0074339
0.486256
-0.0109856
0.80514
-0.013062
1.05882
-0.0151784
1.29032
-0.0183127
1.54737
-0.0228578
1.85101
-0.0287413
2.21241
-0.0351516
2.64221
-0.0405772
3.15324
-0.0424703
3.13677
-0.0406551
2.6042
-0.0367778
2.16582
-0.0312812
1.80327
-0.0250089
1.5022
-0.0184854
1.24864
-0.0122328
1.01839
-0.00675142
0.762159
-0.00233059
0.443267
0.126014
-0.00332885
0.153464
-0.00902572
0.491953
-0.0139924
0.810106
-0.0179155
1.06274
-0.0221715
1.29458
-0.0273662
1.55256
-0.0335197
1.85716
-0.0402204
2.21911
-0.0466252
2.64862
-0.0510268
3.15764
-0.0510489
3.13679
-0.0473286
2.60048
-0.0415177
2.16001
-0.0345446
1.7963
-0.0271978
1.49485
-0.0200498
1.24149
-0.0135174
1.01186
-0.00770613
0.756348
-0.00270676
0.438268
0.123307
-0.00463358
0.158098
-0.0125807
0.4999
-0.0197104
0.817236
-0.0254652
1.06849
-0.0311459
1.30026
-0.0377461
1.55916
-0.0452507
1.86467
-0.05312
2.22698
-0.060016
2.65551
-0.0636681
3.16129
-0.0618222
3.13495
-0.0560667
2.59472
-0.0483937
2.15233
-0.040165
1.78807
-0.0320931
1.48678
-0.0245146
1.23391
-0.0172343
1.00457
-0.00998431
0.749098
-0.00344592
0.431729
0.119861
-0.00564536
0.163743
-0.0151104
0.509365
-0.023942
0.826068
-0.0320994
1.07665
-0.0408114
1.30897
-0.0502687
1.56862
-0.0601647
1.87456
-0.0696864
2.23651
-0.0771848
2.66301
-0.0800457
3.16415
-0.0761206
3.13102
-0.0680855
2.58669
-0.0582389
2.14249
-0.0479878
1.77782
-0.0380648
1.47686
-0.0287724
1.22462
-0.0200997
0.995902
-0.0117274
0.740726
-0.00411612
0.424118
0.115745
-0.00801266
0.171756
-0.0212941
0.522647
-0.0332146
0.837988
-0.0435252
1.08696
-0.0540502
1.31949
-0.0657144
1.58028
-0.0779449
1.88679
-0.0892612
2.24782
-0.0975179
2.67127
-0.0995223
3.16616
-0.093342
3.12484
-0.0825829
2.57593
-0.0700893
2.12999
-0.0576053
1.76533
-0.0461251
1.46538
-0.0357967
1.21429
-0.0257604
0.985866
-0.0151405
0.730106
-0.00520102
0.414179
0.110544
-0.00977951
0.181536
-0.0255999
0.538467
-0.0407374
0.853126
-0.0549493
1.10117
-0.0700638
1.33461
-0.0857071
1.59593
-0.101167
1.90225
-0.114797
2.26145
-0.123889
2.68036
-0.124776
3.16704
-0.11595
3.11602
-0.10219
2.56217
-0.0867889
2.11459
-0.0715123
1.75006
-0.0570008
1.45086
-0.0434091
1.2007
-0.0304746
0.972931
-0.0177103
0.717341
-0.0061
0.402568
0.104444
-0.0149289
0.196464
-0.037546
0.561084
-0.0571275
0.872707
-0.074519
1.11857
-0.0927702
1.35286
-0.112071
1.61523
-0.130831
1.92101
-0.14638
2.277
-0.155529
2.68951
-0.154489
3.166
-0.142141
3.10367
-0.124458
2.54449
-0.10518
2.09532
-0.086399
1.73128
-0.0693621
1.43383
-0.0540709
1.18541
-0.0390755
0.957936
-0.022905
0.701171
-0.00770257
0.387366
0.0967412
-0.0187969
0.215261
-0.0475936
0.589881
-0.0743703
0.899484
-0.0982809
1.14248
-0.123435
1.37801
-0.147863
1.63966
-0.169799
1.94295
-0.186695
2.2939
-0.195239
2.69805
-0.191315
3.16208
-0.174716
3.08707
-0.15286
2.52263
-0.129886
2.07234
-0.107678
1.70907
-0.0866769
1.41283
-0.0667582
1.16549
-0.0470125
0.93819
-0.0269293
0.681088
-0.00874269
0.369179
0.0879985
-0.0334757
0.248737
-0.0736201
0.630025
-0.107171
0.933035
-0.137661
1.17297
-0.168196
1.40855
-0.196334
1.66779
-0.220236
1.96685
-0.237013
2.31067
-0.243182
2.70422
-0.234742
3.15364
-0.212745
3.06507
-0.185743
2.49563
-0.157726
2.04432
-0.130776
1.68212
-0.105945
1.388
-0.0828519
1.14239
-0.0597429
0.915081
-0.0350578
0.656402
-0.0110526
0.345174
0.0769459
-0.0463301
0.295067
-0.109375
0.69307
-0.157436
0.981096
-0.196396
1.21193
-0.231988
1.44414
-0.262142
1.69795
-0.285748
1.99046
-0.299701
2.32463
-0.300782
2.7053
-0.285617
3.13847
-0.256818
3.03627
-0.224319
2.46313
-0.191925
2.01193
-0.161204
1.6514
-0.132646
1.35944
-0.105429
1.11518
-0.0763932
0.886046
-0.0419299
0.621939
-0.0119076
0.315152
0.0650383
-0.0300219
0.325089
-0.0819952
0.745043
-0.129061
1.02816
-0.172817
1.25568
-0.213763
1.48508
-0.25288
1.73707
-0.287982
2.02556
-0.316308
2.35295
-0.333934
2.72293
-0.334151
3.13869
-0.313584
3.01571
-0.280729
2.43027
-0.24131
1.97251
-0.199059
1.60915
-0.155856
1.31624
-0.112631
1.07195
-0.0695275
0.842942
-0.0310824
0.583494
-0.00653582
0.290605
0.0585025
-0.00553634
0.330625
-0.0317097
0.771216
-0.0669208
1.06337
-0.10438
1.29314
-0.141697
1.5224
-0.177101
1.77247
-0.208693
2.05715
-0.233994
2.37825
-0.248649
2.73758
-0.246089
3.13613
-0.223438
2.99305
-0.189343
2.39618
-0.150312
1.93348
-0.110396
1.56923
-0.0721554
1.278
-0.0371085
1.0369
-0.00849475
0.814328
0.00773861
0.567261
0.00682597
0.291518
0.0653285
0.00409874
0.326527
-0.0117976
0.787113
-0.0376328
1.08921
-0.0674209
1.32293
-0.0979648
1.55295
-0.128103
1.80261
-0.155893
2.08494
-0.178117
2.40048
-0.190392
2.74986
-0.186485
3.13222
-0.165036
2.9716
-0.135284
2.36643
-0.102459
1.90066
-0.0697622
1.53653
-0.0395733
1.24781
-0.0133674
1.0107
0.00599832
0.794963
0.0131226
0.560136
0.00758785
0.297053
0.0729163
0.00529228
0.321234
-0.00413589
0.796541
-0.0239537
1.10903
-0.0481438
1.34712
-0.072605
1.57741
-0.0979714
1.82797
-0.12191
2.10888
-0.141229
2.4198
-0.15186
2.76049
-0.148669
3.12903
-0.130449
2.95338
-0.104874
2.34085
-0.0779483
1.87373
-0.0520497
1.51064
-0.0280369
1.22379
-0.00731761
0.989979
0.00715412
0.780491
0.0112282
0.556062
0.00544234
0.302839
0.0783587
0.00713957
0.314095
0.000463767
0.803217
-0.0170899
1.12658
-0.0372111
1.36724
-0.0581471
1.59834
-0.0800593
1.84989
-0.100927
2.12975
-0.118228
2.4371
-0.128342
2.7706
-0.126587
3.12728
-0.111406
2.9382
-0.0905206
2.31996
-0.0678477
1.85106
-0.045696
1.48848
-0.0253987
1.2035
-0.00877094
0.973351
0.00267868
0.769041
0.00544649
0.553294
0.00245639
0.305829
0.0808151
0.00649069
0.307604
0.00192418
0.807783
-0.0132405
1.14174
-0.0314749
1.38548
-0.0504055
1.61727
-0.0698712
1.86935
-0.0886219
2.1485
-0.104566
2.45304
-0.114179
2.78021
-0.11292
3.12602
-0.0996501
2.92493
-0.0810653
2.30138
-0.0614541
1.83145
-0.0427089
1.46974
-0.0261349
1.18692
-0.01271
0.959926
-0.00375437
0.760086
0.000371934
0.549168
0.000272556
0.305928
0.0810876
0.00461898
0.302985
0.00174976
0.810652
-0.0115571
1.15505
-0.0284794
1.4024
-0.0463327
1.63513
-0.064363
1.88738
-0.0817565
2.16589
-0.0967527
2.46804
-0.106339
2.7898
-0.106862
3.12654
-0.0957098
2.91378
-0.0785677
2.28424
-0.0603668
1.81324
-0.0440653
1.45344
-0.0294408
1.1723
-0.0173764
0.947861
-0.0093724
0.752082
-0.00472073
0.544517
-0.00127213
0.302479
0.0798155
0.00262732
0.300358
0.000385671
0.812894
-0.0115298
1.16697
-0.0271602
1.41803
-0.0441092
1.65208
-0.061331
1.9046
-0.0780492
2.18261
-0.0927705
2.48276
-0.103077
2.80011
-0.104319
3.12779
-0.0942398
2.9037
-0.0795671
2.26957
-0.0633849
1.79706
-0.0472254
1.43728
-0.0336512
1.15872
-0.0226237
0.936834
-0.0133643
0.742822
-0.00682397
0.537976
-0.00208964
0.297745
0.0777258
0.000286849
0.300071
-0.00235888
0.81554
-0.0129244
1.17753
-0.0270763
1.43218
-0.0430096
1.66801
-0.0596882
1.92128
-0.076213
2.19914
-0.0911471
2.4977
-0.102198
2.81116
-0.105173
3.13076
-0.097238
2.89577
-0.082428
2.25476
-0.0662556
1.78089
-0.051518
1.42254
-0.0381198
1.14533
-0.0261049
0.924819
-0.016791
0.733509
-0.00892529
0.53011
-0.00270217
0.291522
0.0750237
-0.000673626
0.300745
-0.0052852
0.820151
-0.0147441
1.18699
-0.0276727
1.44511
-0.0425803
1.68292
-0.0587365
1.93744
-0.0752868
2.21569
-0.0907335
2.51314
-0.102927
2.82335
-0.107794
3.13563
-0.10092
2.88889
-0.0875013
2.24134
-0.0719678
1.76536
-0.0560301
1.4066
-0.0415802
1.13088
-0.0293329
0.912572
-0.0188535
0.723029
-0.0101525
0.521409
-0.00326496
0.284634
0.0717587
-0.00277772
0.303522
-0.00776045
0.825134
-0.0168115
1.19604
-0.0287379
1.45703
-0.0427428
1.69692
-0.0583736
1.95307
-0.0749333
2.23225
-0.0910928
2.5293
-0.104939
2.8372
-0.112191
3.14288
-0.107965
2.88467
-0.0951228
2.22849
-0.0782813
1.74852
-0.0623636
1.39069
-0.0480991
1.11661
-0.0356302
0.900103
-0.0237818
0.711181
-0.0123606
0.509988
-0.00391932
0.276193
0.0678394
-0.00401209
0.307534
-0.00922693
0.830349
-0.0181547
1.20497
-0.0296638
1.46854
-0.0431119
1.71037
-0.058303
1.96826
-0.0748575
2.2488
-0.0916878
2.54613
-0.106809
2.85232
-0.115792
3.15186
-0.113679
2.88255
-0.102388
2.2172
-0.0865907
1.73272
-0.0681565
1.37225
-0.051918
1.10037
-0.0366595
0.884844
-0.0239158
0.698437
-0.0135751
0.499647
-0.00445224
0.26707
0.0633872
-0.0043355
0.31187
-0.0101839
0.836197
-0.0189582
1.21374
-0.0302354
1.47982
-0.0433999
1.72353
-0.0583131
1.98317
-0.0748051
2.26529
-0.0921288
2.56346
-0.108654
2.86884
-0.12103
3.16424
-0.122252
2.88378
-0.112073
2.20702
-0.0945877
1.71523
-0.0773955
1.35506
-0.0595739
1.08255
-0.0450475
0.870318
-0.0313222
0.684712
-0.0161136
0.484439
-0.00507955
0.256036
0.0583076
-0.00427995
0.31615
-0.0105983
0.842516
-0.0193514
1.2225
-0.0303801
1.49085
-0.0433204
1.73647
-0.0580189
1.99787
-0.0744859
2.28176
-0.0923461
2.58132
-0.1102
2.8867
-0.124583
3.17862
-0.127434
2.88663
-0.118919
2.19851
-0.104343
1.70066
-0.0837129
1.33443
-0.0636524
1.06249
-0.0451708
0.851836
-0.0288874
0.668428
-0.0161405
0.471692
-0.00511367
0.245009
0.0531939
-0.00425454
0.320404
-0.0108687
0.84913
-0.0194316
1.23106
-0.0301169
1.50154
-0.0428148
1.74917
-0.0573533
2.01241
-0.0738673
2.29827
-0.0922082
2.59966
-0.111274
2.90576
-0.128272
3.19562
-0.135728
2.89408
-0.129594
2.19238
-0.112715
1.68378
-0.092498
1.31421
-0.0718811
1.04187
-0.0537993
0.833754
-0.0369144
0.651544
-0.0188934
0.453671
-0.00524092
0.231357
0.047953
-0.00425805
0.324663
-0.0109201
0.855792
-0.0192704
1.23941
-0.0296044
1.51187
-0.04196
1.76153
-0.0562833
2.02673
-0.0727974
2.31479
-0.0914794
2.61834
-0.111471
2.92575
-0.130483
3.21463
-0.140701
2.9043
-0.1386
2.19027
-0.127132
1.67231
-0.105905
1.29298
-0.0798302
1.0158
-0.0516667
0.805591
-0.0304715
0.630348
-0.0157055
0.438905
-0.00394015
0.219592
0.0440129
-0.00424585
0.328908
-0.0108496
0.862396
-0.0188879
1.24745
-0.0288592
1.52184
-0.0408442
1.77351
-0.0548973
2.04079
-0.0713298
2.33122
-0.0903148
2.63732
-0.111431
2.94687
-0.133275
3.23648
-0.148177
2.9192
-0.149076
2.19117
-0.135322
1.65856
-0.114235
1.2719
-0.0868961
0.98846
-0.0609258
0.779621
-0.0359078
0.60533
-0.0145631
0.41756
-0.00301608
0.208044
0.0409968
-0.00412434
0.333033
-0.0105648
0.868836
-0.0183437
1.25523
-0.0279523
1.53145
-0.0395207
1.78508
-0.0532205
2.05449
-0.0694729
2.34747
-0.0886078
2.65646
-0.110395
2.96866
-0.133473
3.25956
-0.149852
2.93558
-0.154145
2.19547
-0.149293
1.6537
-0.129887
1.25249
-0.100256
0.958829
-0.0594998
0.738864
-0.0183854
0.564216
0.00904777
0.390127
0.0168305
0.200262
0.0578273
-0.00391694
0.33695
-0.0102019
0.875121
-0.0176806
1.26271
-0.0269053
1.54067
-0.0380492
1.79622
-0.051352
2.06779
-0.0673235
2.36344
-0.0864139
2.67555
-0.108735
2.99098
-0.133768
3.28459
-0.154123
2.95594
-0.16384
2.20518
-0.15819
1.64805
-0.141472
1.23577
-0.111893
0.92925
-0.0729896
0.69996
-0.0187866
0.510013
0.0208251
0.350515
0.0127906
0.208296
0.0706179
-0.00362607
0.340576
-0.00966019
0.881155
-0.0168624
1.26991
-0.0256944
1.54951
-0.0364392
1.80697
-0.0493193
2.08067
-0.0649626
2.37909
-0.0839406
2.69453
-0.10665
3.01369
-0.133154
3.31109
-0.156164
2.97895
-0.169382
2.2184
-0.172994
1.65167
-0.161674
1.22445
-0.134958
0.902534
-0.0806656
0.645668
0.0122026
0.417145
0.12383
0.238888
0.156763
0.175363
0.227381
-0.00339892
0.343975
-0.00934439
0.887101
-0.0164323
1.277
-0.0251838
1.55826
-0.0360168
1.8178
-0.0492109
2.09386
-0.0655761
2.39545
-0.0859626
2.71491
-0.111216
3.03894
-0.141916
3.34179
-0.170313
3.00734
-0.191493
2.23958
-0.198039
1.65821
-0.191271
1.21769
-0.168802
0.880066
-0.143554
0.62042
-0.163232
0.436823
-0.373431
0.449087
-0.907187
0.709119
0.88587
-1.56568
-0.00316647
0.347141
-0.00881311
0.892747
-0.0156882
1.28387
-0.0242335
1.5668
-0.0348982
1.82847
-0.0480838
2.10705
-0.0647149
2.41208
-0.0858177
2.73602
-0.112727
3.06585
-0.147005
3.37607
-0.182107
3.04245
-0.209049
2.26652
-0.234471
1.68363
-0.247438
1.23065
-0.25724
0.889868
-0.333263
0.696443
-0.680115
0.783675
-1.37438
1.14335
-1.99267
1.3274
1.22408
-2.33087
-0.00298866
0.35013
-0.00833859
0.898097
-0.0149351
1.29047
-0.0232217
1.57509
-0.0336847
1.83893
-0.0468082
2.12017
-0.0636207
2.4289
-0.0853875
2.75778
-0.11391
3.09437
-0.151221
3.41338
-0.190746
3.08197
-0.228423
2.3042
-0.257921
1.71313
-0.276417
1.24915
-0.364707
0.978158
-0.731078
1.06281
-1.47444
1.52703
-2.06954
1.73846
-2.31921
1.57707
1.34347
-2.4386
-0.00270031
0.35283
-0.00768981
0.903087
-0.0140053
1.29678
-0.0220271
1.58311
-0.0322505
1.84915
-0.0452892
2.13321
-0.0622395
2.44585
-0.0845718
2.78012
-0.114473
3.12427
-0.15534
3.45425
-0.202139
3.12877
-0.242419
2.34448
-0.290041
1.76075
-0.386053
1.34516
-0.69101
1.28311
-1.3855
1.7573
-1.99321
2.13475
-2.24251
1.98775
-2.36144
1.696
1.41198
-2.42995
-0.0024368
0.355267
-0.00708461
0.907735
-0.0130634
1.30276
-0.0207589
1.59081
-0.0307669
1.85916
-0.0436524
2.1461
-0.0606531
2.46285
-0.0834534
2.80292
-0.11475
3.15557
-0.158974
3.49847
-0.212708
3.1825
-0.270061
2.40183
-0.329407
1.8201
-0.492511
1.50826
-1.04023
1.83083
-1.73601
2.45309
-2.08231
2.48105
-2.24091
2.14635
-2.32857
1.78367
1.4802
-2.39679
-0.00224428
0.357511
-0.00669433
0.912185
-0.0126359
1.3087
-0.0203263
1.5985
-0.0304797
1.86931
-0.0435116
2.15913
-0.0608654
2.4802
-0.0843521
2.8264
-0.117005
3.18822
-0.163726
3.54519
-0.220116
3.23889
-0.275258
2.45697
-0.371016
1.91586
-0.727293
1.86454
-1.43407
2.53761
-1.93708
2.9561
-2.14805
2.69202
-2.26025
2.25854
-2.33987
1.86329
1.54688
-2.40655
-0.00220535
0.359717
-0.00683991
0.916819
-0.0130466
1.31491
-0.0210674
1.60652
-0.031635
1.87988
-0.0451665
2.17266
-0.0632037
2.49824
-0.0877155
2.85091
-0.122103
3.22261
-0.172718
3.59581
-0.238588
3.30476
-0.315193
2.53358
-0.489872
2.09054
-0.987509
2.36218
-1.62368
3.17378
-1.9294
3.26181
-2.08588
2.8485
-2.20652
2.37919
-2.30335
1.96011
1.61342
-2.36988
-0.00202629
0.361743
-0.00675313
0.921546
-0.0133078
1.32147
-0.0217373
1.61495
-0.0327103
1.89086
-0.0467779
2.18673
-0.0654987
2.51696
-0.0909909
2.87641
-0.126911
3.25853
-0.179424
3.64832
-0.243775
3.36912
-0.327821
2.61762
-0.587839
2.35056
-1.19727
2.97161
-1.71542
3.69194
-1.93373
3.48012
-2.08522
2.99999
-2.22227
2.51624
-2.34478
2.08262
1.67876
-2.41013
-0.00187845
0.363621
-0.00680825
0.926476
-0.0136667
1.32832
-0.0224812
1.62376
-0.0338953
1.90227
-0.0484859
2.20132
-0.0678486
2.53632
-0.0942839
2.90284
-0.131715
3.29596
-0.187685
3.70429
-0.263499
3.44493
-0.384881
2.73901
-0.724496
2.69017
-1.33661
3.58372
-1.72613
4.08145
-1.91637
3.67036
-2.03464
3.11827
-2.14054
2.62214
-2.21992
2.16201
1.67569
-2.21685
-0.00154072
0.365162
-0.00644674
0.931382
-0.0136859
1.33556
-0.022962
1.63304
-0.034834
1.91414
-0.0499738
2.21646
-0.0700341
2.55638
-0.0974433
2.93025
-0.136393
3.33491
-0.193251
3.76115
-0.27015
3.52183
-0.422951
2.89181
-0.833632
3.10085
-1.39477
4.14486
-1.68314
4.36982
-1.86284
3.85006
-1.97263
3.22806
-1.98632
2.63582
-1.94083
2.11652
1.67527
-1.94041
-0.001244
0.366406
-0.0062799
0.936418
-0.0137223
1.34301
-0.0233327
1.64265
-0.0355264
1.92634
-0.0509034
2.23184
-0.0710491
2.57653
-0.0983537
2.95756
-0.137045
3.3736
-0.194986
3.81909
-0.27992
3.60676
-0.462967
3.07486
-0.893497
3.53138
-1.35701
4.60837
-1.55545
4.56826
-1.64256
3.93718
-1.6648
3.2503
-1.53341
2.50444
-1.04923
1.63233
0.62604
-0.000680324
0.367086
-0.00532948
0.941067
-0.013113
1.35079
-0.02339
1.65293
-0.0363267
1.93927
-0.0526711
2.24818
-0.0742941
2.59815
-0.103819
2.98708
-0.146135
3.41592
-0.208216
3.88117
-0.303415
3.70196
-0.523212
3.29465
-1.01148
4.01965
-1.40899
5.00588
-1.52931
4.68858
-1.54337
3.95123
-1.46215
3.16907
-1.24077
2.28306
-0.676028
1.06759
-0.0499879
-0.00018417
0.367271
-0.00449616
0.945379
-0.0124286
1.35872
-0.0232324
1.66373
-0.0367787
1.95282
-0.0540201
2.26542
-0.0769115
2.62104
-0.108117
3.01829
-0.152698
3.4605
-0.220516
3.94899
-0.329552
3.811
-0.593278
3.55838
-1.10953
4.5359
-1.42097
5.31732
-1.50203
4.76965
-1.49846
3.94766
-1.3183
2.98892
-0.836935
1.8017
-0.137074
0.367728
-0.187062
0.00106829
0.366202
-0.00239018
0.948837
-0.0108533
1.36718
-0.0221716
1.67505
-0.0362008
1.96685
-0.0542162
2.28344
-0.0782576
2.64508
-0.111095
3.05112
-0.159281
3.50869
-0.233744
4.02345
-0.361444
3.9387
-0.666152
3.86309
-1.17656
5.04631
-1.39541
5.53617
-1.44103
4.81527
-1.38304
3.88967
-1.10909
2.71497
-0.388503
1.08111
0.0295162
-0.0502906
-0.157546
0.00200492
0.364197
-0.00034503
0.951187
-0.00904558
1.37589
-0.0205619
1.68656
-0.0348895
1.98117
-0.0535497
2.3021
-0.0786909
2.67022
-0.113193
3.08563
-0.162574
3.55807
-0.240042
4.10092
-0.378134
4.07679
-0.713591
4.19854
-1.20134
5.53406
-1.35096
5.68579
-1.36655
4.83086
-1.2257
3.74882
-0.792446
2.28171
-0.119843
0.408503
0.0329529
-0.203087
-0.124593
0.00352201
0.360675
0.00220878
0.952501
-0.00583537
1.38393
-0.0173439
1.69807
-0.0318762
1.99571
-0.051028
2.32125
-0.07644
2.69564
-0.110569
3.11975
-0.160043
3.60754
-0.244478
4.18536
-0.406235
4.23854
-0.773664
4.56597
-1.19147
5.95186
-1.28346
5.77778
-1.26621
4.81362
-1.02206
3.50466
-0.449446
1.7091
-0.0162884
-0.0246538
0.0178032
-0.237178
-0.106789
0.0048403
0.355835
0.00477476
0.952566
-0.00214425
1.39085
-0.0130776
1.70901
-0.0275277
2.01016
-0.0466374
2.34036
-0.0719487
2.72095
-0.106926
3.15473
-0.157891
3.65851
-0.24537
4.27283
-0.40812
4.40129
-0.7752
4.93305
-1.10583
6.28249
-1.17728
5.84923
-1.12525
4.76159
-0.835817
3.21523
-0.215068
1.08835
-0.0210608
-0.218661
-0.00621275
-0.252026
-0.113002
0.00730883
0.348526
0.0096179
0.950257
0.0041097
1.39636
-0.00617023
1.71929
-0.020561
2.02455
-0.0393054
2.3591
-0.0638846
2.74553
-0.0985348
3.18938
-0.14728
3.70725
-0.229223
4.35478
-0.40922
4.58129
-0.766543
5.29038
-1.01435
6.5303
-1.06736
5.90223
-0.938622
4.63286
-0.547025
2.82363
0.00269767
0.538629
0.0365548
-0.252518
0.0223173
-0.237789
-0.0906848
0.00970911
0.338817
0.0147212
0.945245
0.0110324
1.40005
0.00241436
1.7279
-0.0114256
2.03839
-0.0284787
2.37616
-0.0506946
2.76774
-0.0820568
3.22074
-0.125435
3.75063
-0.197779
4.42712
-0.373927
4.75744
-0.67673
5.59318
-0.855299
6.70887
-0.910129
5.95706
-0.808265
4.53099
-0.351212
2.36658
0.016903
0.170514
0.00577775
-0.241393
0.0137379
-0.245749
-0.0769469
0.0135259
0.325291
0.022697
0.936074
0.0212876
1.40145
0.0134594
1.73573
0.001552
2.0503
-0.0124111
2.39012
-0.0321382
2.78747
-0.0615394
3.25015
-0.105216
3.79431
-0.169289
4.4912
-0.328471
4.91662
-0.549865
5.81457
-0.687182
6.84619
-0.769684
6.03957
-0.764641
4.52595
-0.53389
2.13583
-0.420455
0.0570791
-0.304256
-0.357592
-0.154318
-0.395687
-0.231265
0.0169039
0.308387
0.0305618
0.922416
0.0328508
1.39917
0.0283735
1.74021
0.0201597
2.05851
0.00797568
2.4023
-0.00855961
2.804
-0.0312432
3.27283
-0.0688179
3.83188
-0.112582
4.53496
-0.216604
5.02064
-0.344734
5.9427
-0.438818
6.94027
-0.522217
6.12297
-0.611159
4.61489
-0.680194
2.20486
-0.747144
0.124029
-0.564911
-0.539824
-0.282064
-0.678535
-0.513329
0.0216321
0.286755
0.0417991
0.902249
0.049029
1.39194
0.0484209
1.74082
0.0429583
2.06397
0.0357837
2.40948
0.026184
2.8136
0.0132996
3.28571
-0.00455242
3.84973
-0.0340817
4.56449
-0.0535416
5.0401
-0.0523486
5.94151
-0.0731863
6.96111
-0.0959949
6.14577
-0.141409
4.6603
-0.315524
2.37898
-0.650444
0.45895
-0.641825
-0.548444
-0.307347
-1.01301
-0.820676
0.0257991
0.260956
0.05333
0.874718
0.067263
1.378
0.0718587
1.73622
0.0718565
2.06397
0.0717068
2.40963
0.0695672
2.81574
0.0670061
3.28827
0.0624438
3.8543
0.0698755
4.55706
0.112083
4.99789
0.300083
5.75351
0.499768
6.76143
0.782263
5.86328
0.971592
4.47098
0.726635
2.62393
0.279057
0.906528
-0.058394
-0.210993
-0.129874
-0.941533
-0.95055
0.0304926
0.230463
0.067546
0.837665
0.0893193
1.35623
0.100478
1.72506
0.107406
2.05705
0.114427
2.40261
0.122111
2.80806
0.129322
3.28106
0.141219
3.8424
0.17247
4.52581
0.311048
4.85932
0.744748
5.31981
1.14005
6.36612
1.49449
5.50884
1.68158
4.28388
1.4677
2.83782
1.07598
1.29825
0.688408
0.176578
0.261208
-0.514333
-0.689342
0.0331818
0.197282
0.0806788
0.790168
0.113168
1.32374
0.133022
1.70521
0.149723
2.04035
0.164674
2.38765
0.184076
2.78866
0.202606
3.26253
0.224608
3.8204
0.243094
4.50732
0.462219
4.64019
1.00863
4.7734
1.44765
5.9271
1.7411
5.21539
1.86578
4.1592
1.73339
2.9702
1.32219
1.70945
0.834882
0.66389
0.381567
-0.0610183
-0.307775
0.0358817
0.1614
0.093641
0.732408
0.138247
1.27913
0.169854
1.6736
0.198461
2.01174
0.225192
2.36092
0.25897
2.75488
0.291098
3.23041
0.324487
3.78701
0.335318
4.49649
0.473882
4.50163
0.920559
4.32672
1.3891
5.45856
1.62738
4.97711
1.7431
4.04349
1.63604
3.07726
1.27798
2.06751
0.82614
1.11573
0.34794
0.417182
0.0401651
0.0361912
0.125209
0.104496
0.664104
0.164326
1.2193
0.210453
1.62748
0.254291
1.9679
0.299624
2.31559
0.351967
2.70254
0.403121
3.17925
0.462427
3.7277
0.494932
4.46398
0.501202
4.49536
0.683154
4.14477
1.16134
4.98037
1.3343
4.80415
1.36299
4.01479
1.2437
3.19655
0.976884
2.33433
0.629336
1.46328
0.268048
0.77847
0.308213
0.037634
0.0875748
0.111943
0.589795
0.187567
1.14368
0.252986
1.56206
0.314424
1.90646
0.380575
2.24944
0.456035
2.62708
0.545605
3.08968
0.666483
3.60682
0.766967
4.3635
0.720207
4.54212
0.662484
4.2025
0.909929
4.73293
0.957516
4.75656
0.923276
4.04903
0.836288
3.28354
0.666522
2.5041
0.403301
1.7265
0.156463
1.02531
0.464676
0.0373186
0.0502562
0.11344
0.513673
0.200278
1.05684
0.28651
1.47582
0.372479
1.82049
0.469789
2.15213
0.586508
2.51036
0.752516
2.92367
0.989573
3.36977
1.20491
4.14817
1.13466
4.61236
0.880009
4.45715
0.843569
4.76937
0.817525
4.7826
0.748613
4.11795
0.632613
3.39954
0.44021
2.6965
0.252996
1.91371
0.0870764
1.19123
0.551752
0.0349807
0.0152755
0.119923
0.428731
0.217226
0.959539
0.319352
1.3737
0.431341
1.7085
0.563091
2.02038
0.735872
2.33758
0.993583
2.66596
1.33651
3.02684
1.65798
3.82669
1.69119
4.57915
1.31106
4.83728
1.07316
5.00727
0.939771
4.91599
0.752097
4.30562
0.510231
3.6414
0.286816
2.91992
0.170781
2.02975
0.0468153
1.31519
0.598568
0.0228187
-0.00754317
0.0815963
0.369954
0.163497
0.877638
0.266677
1.27052
0.387488
1.58769
0.524811
1.88306
0.695998
2.16639
0.920677
2.44128
1.17838
2.76914
1.42914
3.57593
1.42941
4.57888
1.06122
5.20547
0.764844
5.30365
0.548866
5.13197
0.325304
4.52918
0.130894
3.83581
0.05722
2.99359
0.0372052
2.04976
0.00264173
1.34976
0.601209
-0.00110902
-0.00643415
0.00972183
0.359123
0.0496557
0.837704
0.121679
1.1985
0.223925
1.48545
0.351221
1.75576
0.504588
2.01302
0.688435
2.25743
0.902244
2.55533
1.15178
3.32639
1.14254
4.58812
0.791634
5.55637
0.411621
5.68367
0.114268
5.42932
-0.127783
4.77123
-0.214486
3.92252
-0.142057
2.92116
-0.0803953
1.9881
-0.0438519
1.31321
0.557358
-0.0154738
0.00903967
-0.0269097
0.370559
-0.0185642
0.829359
0.0206476
1.15928
0.0830149
1.42308
0.164622
1.67416
0.254808
1.92284
0.3486
2.16364
0.446823
2.45711
0.50186
3.27135
0.400261
4.68972
0.0329941
5.92364
-0.327149
6.04381
-0.51852
5.62069
-0.578449
4.83116
-0.476211
3.82028
-0.26333
2.70828
-0.151106
1.87588
-0.0760573
1.23816
0.4813
-0.0217709
0.0308106
-0.0511411
0.399929
-0.0649044
0.843122
-0.0607326
1.15511
-0.0451601
1.40751
-0.0257851
1.65478
-0.0168571
1.91391
-0.0299349
2.17672
-0.0874929
2.51467
-0.248048
3.43191
-0.533536
4.97521
-0.869582
6.25969
-1.00685
6.18108
-0.959283
5.57312
-0.821439
4.69332
-0.556227
3.55507
-0.295692
2.44775
-0.175718
1.7559
-0.0800471
1.14249
0.401253
-0.0267244
0.057535
-0.0693485
0.442553
-0.0993813
0.873155
-0.123611
1.17934
-0.153428
1.43732
-0.195416
1.69677
-0.264284
1.98278
-0.381429