/*--------------------------------*- C++ -*----------------------------------*\
| =========                 |                                                 |
| \\      /  F ield         | OpenFOAM: The Open Source CFD Toolbox           |
|  \\    /   O peration     | Version:  v2012                                 |
|   \\  /    A nd           | Website:  www.openfoam.com                      |
|    \\/     M anipulation  |                                                 |
\*---------------------------------------------------------------------------*/
FoamFile
{
    version     2.0;
    format      ascii;
    class       volVectorField;
    location    "17";
    object      U;
}
// * * * * * * * * * * * * * * * * * * * * * * * * * * * * * * * * * * * * * //

dimensions      [0 1 -1 0 0 0 0];


internalField   nonuniform List<vector> 
2200
(
(0.878534 -0.0303464 0)
(1.00564 -0.051292 0)
(1.00281 -0.0353244 0)
(0.999836 -0.0243228 0)
(0.999514 -0.0165203 0)
(0.999906 -0.0106783 0)
(1.00021 -0.0067331 0)
(1.00034 -0.00397425 0)
(1.00031 -0.0020494 0)
(1.00016 -0.000629058 0)
(1.00011 0.000741473 0)
(1.00033 0.00225286 0)
(1.00037 0.00416699 0)
(1.00025 0.00693524 0)
(0.999931 0.0108118 0)
(0.999528 0.0166281 0)
(0.999861 0.0243968 0)
(1.00285 0.035386 0)
(1.00564 0.0513086 0)
(0.878523 0.0303675 0)
(0.712623 -0.0327172 0)
(0.99676 -0.0627539 0)
(1.03409 -0.0559433 0)
(1.02549 -0.0460164 0)
(1.01605 -0.0354701 0)
(1.00951 -0.02556 0)
(1.00566 -0.0176075 0)
(1.00347 -0.0113994 0)
(1.00223 -0.00621425 0)
(1.00192 -0.00180278 0)
(1.00185 0.00250615 0)
(1.00221 0.00682853 0)
(1.00342 0.0119269 0)
(1.00551 0.0179661 0)
(1.00935 0.0258971 0)
(1.01591 0.0357423 0)
(1.02534 0.0462379 0)
(1.03391 0.0560861 0)
(0.996634 0.0629005 0)
(0.712468 0.0327427 0)
(0.536201 -0.0238803 0)
(0.970399 -0.0567178 0)
(1.05629 -0.0542881 0)
(1.05263 -0.0487039 0)
(1.037 -0.0404843 0)
(1.02476 -0.0321348 0)
(1.01582 -0.0238722 0)
(1.01009 -0.0160106 0)
(1.00692 -0.00896045 0)
(1.00565 -0.00257529 0)
(1.00565 0.00362518 0)
(1.00685 0.00988741 0)
(1.00988 0.0167732 0)
(1.01561 0.0246078 0)
(1.02458 0.0327326 0)
(1.03681 0.0410146 0)
(1.05243 0.049149 0)
(1.05607 0.0546731 0)
(0.969937 0.0569369 0)
(0.535548 0.0239503 0)
(0.393861 -0.0132905 0)
(0.912535 -0.0456576 0)
(1.058 -0.0462956 0)
(1.06906 -0.043268 0)
(1.05463 -0.0375712 0)
(1.0393 -0.0312813 0)
(1.02761 -0.0245994 0)
(1.01926 -0.0172551 0)
(1.01409 -0.00987482 0)
(1.01163 -0.00266369 0)
(1.0115 0.00420583 0)
(1.01376 0.0113478 0)
(1.01891 0.0185842 0)
(1.02723 0.0257174 0)
(1.03886 0.0322934 0)
(1.05418 0.0383811 0)
(1.06851 0.0439046 0)
(1.0572 0.0467643 0)
(0.9114 0.0459292 0)
(0.392549 0.0133642 0)
(0.312681 -0.00405498 0)
(0.850892 -0.0310522 0)
(1.05044 -0.0376489 0)
(1.07894 -0.0357775 0)
(1.06745 -0.0312306 0)
(1.05152 -0.0262322 0)
(1.03804 -0.0214277 0)
(1.0275 -0.0159365 0)
(1.02045 -0.00965235 0)
(1.01675 -0.00252863 0)
(1.01659 0.00459749 0)
(1.02004 0.0116024 0)
(1.02689 0.0176806 0)
(1.0373 0.0229699 0)
(1.05067 0.0274389 0)
(1.06649 0.0322292 0)
(1.07787 0.0365665 0)
(1.04914 0.0382371 0)
(0.848956 0.0313663 0)
(0.310758 0.00411915 0)
(0.271678 0.000389609 0)
(0.79629 -0.0188448 0)
(1.03655 -0.0291938 0)
(1.08405 -0.0293459 0)
(1.07648 -0.0256084 0)
(1.06025 -0.0210843 0)
(1.04705 -0.0169998 0)
(1.03644 -0.0126481 0)
(1.02841 -0.00774427 0)
(1.02362 -0.00184271 0)
(1.02347 0.00453172 0)
(1.0279 0.0101308 0)
(1.03555 0.0147069 0)
(1.04591 0.0187089 0)
(1.059 0.0226133 0)
(1.07523 0.0269101 0)
(1.08256 0.0304434 0)
(1.03447 0.0300287 0)
(0.793226 0.0192311 0)
(0.269045 -0.000313374 0)
(0.250246 0.00141793 0)
(0.74876 -0.0107225 0)
(1.01851 -0.0225206 0)
(1.08506 -0.0239426 0)
(1.08225 -0.0213182 0)
(1.06645 -0.0173999 0)
(1.05328 -0.013624 0)
(1.04305 -0.00975832 0)
(1.03519 -0.00553055 0)
(1.03053 -0.00090633 0)
(1.03021 0.00443755 0)
(1.0343 0.00877714 0)
(1.04175 0.0126555 0)
(1.0518 0.0162224 0)
(1.06482 0.0195479 0)
(1.0804 0.0230835 0)
(1.08285 0.0253714 0)
(1.01524 0.0235223 0)
(0.744021 0.0111555 0)
(0.246729 -0.00130134 0)
(0.240565 0.0012514 0)
(0.712802 -0.00481434 0)
(0.999645 -0.0152029 0)
(1.08271 -0.0172497 0)
(1.08484 -0.016213 0)
(1.06987 -0.0137244 0)
(1.05607 -0.0110564 0)
(1.04537 -0.00793028 0)
(1.03772 -0.00414418 0)
(1.03361 -9.69196e-05 0)
(1.0331 0.00456028 0)
(1.03641 0.00836352 0)
(1.04348 0.0117269 0)
(1.05377 0.0141676 0)
(1.06726 0.0162657 0)
(1.082 0.0183277 0)
(1.07931 0.0188719 0)
(0.99489 0.0162527 0)
(0.706618 0.00527494 0)
(0.236086 -0.00112383 0)
(0.238611 0.000877405 0)
(0.692136 -0.000820703 0)
(0.984132 -0.00771319 0)
(1.07804 -0.00982544 0)
(1.08463 -0.0102571 0)
(1.07074 -0.00942698 0)
(1.05678 -0.00841408 0)
(1.04636 -0.00618191 0)
(1.03899 -0.00302029 0)
(1.035 0.000758377 0)
(1.03441 0.00488298 0)
(1.03744 0.00822876 0)
(1.04415 0.0107529 0)
(1.05374 0.0121898 0)
(1.06759 0.0126455 0)
(1.08084 0.0128121 0)
(1.07336 0.0117818 0)
(0.977617 0.00902023 0)
(0.684099 0.00141088 0)
(0.232858 -0.000724355 0)
(0.239956 0.000552558 0)
(0.683763 0.00063636 0)
(0.97367 -0.00307745 0)
(1.07368 -0.00508122 0)
(1.08398 -0.00611592 0)
(1.0722 -0.00631198 0)
(1.05906 -0.00585618 0)
(1.04905 -0.00435211 0)
(1.04169 -0.00186329 0)
(1.03747 0.00159351 0)
(1.03662 0.00519043 0)
(1.03937 0.00811312 0)
(1.04573 0.00990765 0)
(1.05546 0.0107246 0)
(1.06763 0.0103254 0)
(1.07877 0.00928888 0)
(1.06751 0.0075236 0)
(0.965551 0.00471753 0)
(0.673524 0.000129606 0)
(0.232877 -0.000313766 0)
(0.241984 0.000134295 0)
(0.681236 0.000626257 0)
(0.968369 -0.00127476 0)
(1.07059 -0.00318231 0)
(1.08312 -0.00440306 0)
(1.0732 -0.00483673 0)
(1.06203 -0.00447077 0)
(1.05319 -0.00288356 0)
(1.04653 -0.000561291 0)
(1.04234 0.00276025 0)
(1.04106 0.00599286 0)
(1.04315 0.00866053 0)
(1.04839 0.0100714 0)
(1.05584 0.0108393 0)
(1.06675 0.00990103 0)
(1.07616 0.00853258 0)
(1.06226 0.00641145 0)
(0.957228 0.00343631 0)
(0.66827 0.000379753 0)
(0.232768 3.93111e-05 0)
(0.243116 1.44091e-05 0)
(0.681011 0.00065374 0)
(0.964485 -0.000397107 0)
(1.0672 -0.0023384 0)
(1.08128 -0.00375637 0)
(1.07292 -0.00427023 0)
(1.06327 -0.00388989 0)
(1.0555 -0.00206286 0)
(1.04963 0.000549273 0)
(1.04571 0.004105 0)
(1.04424 0.00737355 0)
(1.04558 0.0100676 0)
(1.04942 0.0112614 0)
(1.0555 0.0112493 0)
(1.06506 0.0104341 0)
(1.07207 0.00865771 0)
(1.05625 0.00610244 0)
(0.950059 0.00300182 0)
(0.66394 0.000692241 0)
(0.231684 0.00014864 0)
(0.2446 0.000249623 0)
(0.681513 0.000881338 0)
(0.960682 0.000715085 0)
(1.0631 -0.000801705 0)
(1.07824 -0.00229275 0)
(1.072 -0.00316774 0)
(1.06341 -0.00256271 0)
(1.05641 -0.000830707 0)
(1.05087 0.00183856 0)
(1.04692 0.0053948 0)
(1.04517 0.00865817 0)
(1.04597 0.0112575 0)
(1.04905 0.0122146 0)
(1.0544 0.0121568 0)
(1.06159 0.0110658 0)
(1.06642 0.00863001 0)
(1.04895 0.00561536 0)
(0.942887 0.00247711 0)
(0.659756 0.000668367 0)
(0.229929 0.000159242 0)
(0.246783 0.000344376 0)
(0.683196 0.00115738 0)
(0.959532 0.00196688 0)
(1.05963 0.000624178 0)
(1.07605 -0.000480552 0)
(1.07176 -0.00121817 0)
(1.06481 -0.000487986 0)
(1.05865 0.00126315 0)
(1.05335 0.00395231 0)
(1.04907 0.00729643 0)
(1.04676 0.0103168 0)
(1.04687 0.0124296 0)
(1.04902 0.013059 0)
(1.05308 0.0126351 0)
(1.05815 0.0109783 0)
(1.06068 0.00827902 0)
(1.04172 0.0051255 0)
(0.936619 0.00220779 0)
(0.656379 0.000711303 0)
(0.228487 0.000176958 0)
(0.249942 0.000345226 0)
(0.687327 0.00149971 0)
(0.960044 0.00254651 0)
(1.0577 0.0022817 0)
(1.07476 0.00172514 0)
(1.07228 0.00141974 0)
(1.06709 0.00225302 0)
(1.06188 0.00396894 0)
(1.05687 0.00656452 0)
(1.05228 0.00962584 0)
(1.04908 0.0123108 0)
(1.0481 0.0137629 0)
(1.0489 0.013989 0)
(1.0515 0.0129711 0)
(1.05453 0.0111257 0)
(1.05507 0.0084432 0)
(1.03489 0.0054408 0)
(0.930628 0.00269756 0)
(0.652435 0.00110418 0)
(0.226436 0.000281532 0)
(0.253001 0.000361793 0)
(0.691234 0.00168697 0)
(0.961635 0.00302782 0)
(1.05786 0.00337262 0)
(1.07475 0.00337191 0)
(1.07329 0.00384803 0)
(1.06917 0.00523567 0)
(1.06461 0.00728689 0)
(1.05978 0.00998918 0)
(1.05487 0.012845 0)
(1.05089 0.0150657 0)
(1.04883 0.0157721 0)
(1.04839 0.0152984 0)
(1.04949 0.0137069 0)
(1.05091 0.0114231 0)
(1.04988 0.00858528 0)
(1.0288 0.00569742 0)
(0.925138 0.00316633 0)
(0.64817 0.00145097 0)
(0.223764 0.000351493 0)
(0.257514 0.000507805 0)
(0.698229 0.00222196 0)
(0.9654 0.00418467 0)
(1.0591 0.00523633 0)
(1.07595 0.00603309 0)
(1.07518 0.00709595 0)
(1.07166 0.00875006 0)
(1.0673 0.0110383 0)
(1.06226 0.0137968 0)
(1.05668 0.0164777 0)
(1.05161 0.0181828 0)
(1.0482 0.0181948 0)
(1.04658 0.0168895 0)
(1.04612 0.0149213 0)
(1.04625 0.0123265 0)
(1.04409 0.00948194 0)
(1.02243 0.00666732 0)
(0.918893 0.00403688 0)
(0.64226 0.0018633 0)
(0.220068 0.000437741 0)
(0.26216 0.000659077 0)
(0.704326 0.00264975 0)
(0.969991 0.00515235 0)
(1.06215 0.00684875 0)
(1.0786 0.00865765 0)
(1.07801 0.0106137 0)
(1.07461 0.0131149 0)
(1.07012 0.0158882 0)
(1.06454 0.0187927 0)
(1.05797 0.0212731 0)
(1.05158 0.0223129 0)
(1.0468 0.0215031 0)
(1.04401 0.0193499 0)
(1.04248 0.0166401 0)
(1.04161 0.013457 0)
(1.03853 0.0102747 0)
(1.01608 0.00722591 0)
(0.912055 0.00454075 0)
(0.635636 0.00217294 0)
(0.215855 0.000509117 0)
(0.26971 0.000886925 0)
(0.715702 0.0037029 0)
(0.978197 0.00717587 0)
(1.06732 0.00988077 0)
(1.08297 0.0121386 0)
(1.08232 0.0148318 0)
(1.07875 0.0178787 0)
(1.07379 0.0212328 0)
(1.06736 0.0245362 0)
(1.05947 0.0269714 0)
(1.05143 0.0274217 0)
(1.04506 0.0257219 0)
(1.04089 0.022719 0)
(1.03814 0.0192592 0)
(1.03622 0.0156843 0)
(1.03235 0.0122592 0)
(1.00934 0.00906511 0)
(0.904653 0.00592977 0)
(0.627471 0.00278688 0)
(0.210485 0.000632172 0)
(0.277677 0.00117261 0)
(0.726634 0.00440611 0)
(0.986991 0.00861869 0)
(1.0743 0.0120811 0)
(1.08918 0.0157777 0)
(1.0881 0.0196967 0)
(1.08389 0.0238541 0)
(1.07796 0.0281078 0)
(1.07012 0.0318769 0)
(1.06035 0.0343118 0)
(1.05023 0.0341172 0)
(1.04206 0.031398 0)
(1.03644 0.0274602 0)
(1.03261 0.0230701 0)
(1.02984 0.0186861 0)
(1.02522 0.0145177 0)
(1.00101 0.010538 0)
(0.894496 0.00690693 0)
(0.616857 0.003314 0)
(0.203985 0.000770868 0)
(0.290396 0.00155044 0)
(0.744541 0.00637378 0)
(1.00037 0.0119992 0)
(1.08379 0.0167661 0)
(1.09723 0.0209122 0)
(1.09546 0.0258568 0)
(1.09022 0.0310703 0)
(1.08293 0.036192 0)
(1.07324 0.0405843 0)
(1.0612 0.043011 0)
(1.0487 0.0421362 0)
(1.03855 0.0382979 0)
(1.0314 0.0331595 0)
(1.02643 0.0276795 0)
(1.0228 0.022435 0)
(1.01743 0.0176869 0)
(0.992422 0.0133892 0)
(0.884564 0.00897838 0)
(0.605318 0.0042418 0)
(0.19611 0.000930007 0)
(0.304652 0.00215309 0)
(0.764493 0.00743941 0)
(1.01613 0.0146289 0)
(1.09618 0.020663 0)
(1.10827 0.0269874 0)
(1.10503 0.0337392 0)
(1.09821 0.0403851 0)
(1.08874 0.0467903 0)
(1.07649 0.0519258 0)
(1.06149 0.054301 0)
(1.04601 0.0525823 0)
(1.03343 0.0474635 0)
(1.02443 0.0410253 0)
(1.01807 0.0342917 0)
(1.01344 0.0278939 0)
(1.00712 0.0217877 0)
(0.980076 0.0159467 0)
(0.868583 0.0105023 0)
(0.588165 0.00495104 0)
(0.186077 0.00111835 0)
(0.326287 0.0030798 0)
(0.792251 0.0116268 0)
(1.03761 0.0206208 0)
(1.11235 0.0287002 0)
(1.12192 0.0357771 0)
(1.11693 0.0442988 0)
(1.10773 0.0525259 0)
(1.09541 0.0601417 0)
(1.07987 0.0657039 0)
(1.0613 0.067732 0)
(1.04247 0.0648117 0)
(1.0273 0.0580319 0)
(1.01645 0.0498663 0)
(1.00878 0.0415161 0)
(1.00309 0.0336164 0)
(0.995715 0.0266532 0)
(0.967402 0.0202358 0)
(0.854307 0.0136085 0)
(0.571795 0.00639171 0)
(0.17487 0.00131546 0)
(0.355926 0.00425125 0)
(0.830669 0.0139998 0)
(1.06504 0.027015 0)
(1.13249 0.0372229 0)
(1.13983 0.0476054 0)
(1.13149 0.0588195 0)
(1.1189 0.0687452 0)
(1.10283 0.0774016 0)
(1.08322 0.0832243 0)
(1.06052 0.0844906 0)
(1.03785 0.0799747 0)
(1.01965 0.0713172 0)
(1.00651 0.0613669 0)
(0.997077 0.0514687 0)
(0.990084 0.0421524 0)
(0.981175 0.0331896 0)
(0.949348 0.0246456 0)
(0.829065 0.0161847 0)
(0.544057 0.00729267 0)
(0.159494 0.00149136 0)
(0.391974 0.00837919 0)
(0.87592 0.0238636 0)
(1.1004 0.0391237 0)
(1.15879 0.0524452 0)
(1.16155 0.0660845 0)
(1.14862 0.0789451 0)
(1.1314 0.0902897 0)
(1.11043 0.0994791 0)
(1.08595 0.104761 0)
(1.05838 0.104523 0)
(1.03141 0.0978531 0)
(1.00997 0.0868524 0)
(0.994528 0.0746869 0)
(0.983325 0.0625773 0)
(0.974738 0.0512023 0)
(0.96414 0.040871 0)
(0.92979 0.0308157 0)
(0.808132 0.0207322 0)
(0.521711 0.00970577 0)
(0.145637 0.00156635 0)
(0.476894 0.0119371 0)
(0.951144 0.0335922 0)
(1.14734 0.0585631 0)
(1.19106 0.0754883 0)
(1.18729 0.0929286 7.19867e-35)
(1.16758 0.107294 -4.85465e-35)
(1.14429 0.119296 0)
(1.11755 0.127718 0)
(1.08757 0.131314 0)
(1.0548 0.128698 0)
(1.02354 0.119013 0)
(0.9988 0.105104 0)
(0.980747 0.0905913 0)
(0.967447 0.0767628 0)
(0.956993 0.0637923 0)
(0.943781 0.0515245 0)
(0.903978 0.0395092 0)
(0.7691 0.0263306 0)
(0.472568 0.0107906 0)
(0.119754 0.00143194 0)
(0.54097 0.027241 -7.68396e-21)
(1.03669 0.0583491 5.14976e-21)
(1.1994 0.0908568 0)
(1.22694 0.111526 8.36297e-22)
(1.21362 0.131654 -6.77687e-22)
(1.18623 0.14564 5.12183e-35)
(1.15647 0.156249 0)
(1.12342 0.162905 4.74338e-21)
(1.08719 0.164302 -1.70093e-20)
(1.04845 0.158764 3.76182e-21)
(1.01181 0.145929 0)
(0.982758 0.129373 -1.23742e-20)
(0.961316 0.112605 -1.55067e-20)
(0.945031 0.0964712 2.72759e-20)
(0.931573 0.0815055 -2.19452e-20)
(0.914138 0.0671347 0)
(0.865462 0.0517196 -8.46458e-21)
(0.717894 0.0352149 0)
(0.427677 0.0182734 -4.57934e-20)
(0.10251 0.0027136 5.43599e-20)
(0.565013 0.05422 -1.81795e-22)
(1.08438 0.103518 -4.61059e-20)
(1.24174 0.143074 1.22082e-20)
(1.25966 0.161025 1.76609e-20)
(1.23714 0.179763 -6.61518e-22)
(1.20288 0.191393 1.78569e-21)
(1.16642 0.200241 0)
(1.12667 0.205097 0)
(1.08399 0.204313 2.65569e-20)
(1.03906 0.196234 0)
(0.996745 0.180933 4.23749e-20)
(0.962754 0.162069 1.32754e-20)
(0.936624 0.143578 3.81486e-22)
(0.916039 0.126506 -3.0616e-20)
(0.89855 0.110687 0)
(0.877452 0.0964667 0)
(0.827811 0.0806234 -1.43489e-19)
(0.68886 0.0617964 3.61023e-19)
(0.41646 0.0332849 -2.14566e-19)
(0.104354 0.0101178 -2.55833e-19)
(0.566724 0.083256 8.06017e-20)
(1.11173 0.162487 -2.35e-20)
(1.273 0.207382 -6.17302e-21)
(1.28588 0.221546 -3.38375e-20)
(1.25623 0.236064 1.36038e-20)
(1.21585 0.243546 6.43856e-22)
(1.17295 0.249456 3.80845e-21)
(1.12699 0.251248 0)
(1.07841 0.247318 -5.47981e-20)
(1.02732 0.236097 6.13942e-20)
(0.978883 0.217823 -1.15823e-19)
(0.93964 0.19726 5.65439e-20)
(0.909997 0.178395 -4.19217e-20)
(0.886473 0.161504 9.17493e-20)
(0.866093 0.1464 0)
(0.843001 0.132191 -3.61519e-20)
(0.795345 0.117777 0)
(0.668619 0.0932118 2.07466e-19)
(0.417553 0.057182 -4.92487e-19)
(0.118147 0.0172368 3.093e-19)
(0.55267 0.114493 -3.78425e-19)
(1.12428 0.222844 1.51171e-19)
(1.29189 0.276469 2.41999e-20)
(1.30346 0.286655 0)
(1.269 0.296996 1.8618e-20)
(1.22385 0.300056 -2.02182e-20)
(1.1757 0.302076 -3.87314e-21)
(1.1246 0.299909 0)
(1.07081 0.292266 3.86096e-20)
(1.01443 0.277711 -4.2106e-20)
(0.961814 0.257011 1.01566e-19)
(0.919449 0.234889 0)
(0.885707 0.214777 -8.81539e-20)
(0.858599 0.197688 4.86024e-20)
(0.836671 0.183176 1.32279e-19)
(0.81363 0.169223 -1.16321e-19)
(0.769545 0.153702 1.93266e-19)
(0.65507 0.126528 -4.30108e-19)
(0.423954 0.0812879 2.73364e-19)
(0.12875 0.0261304 -3.43594e-19)
(0.533237 0.138878 2.32739e-19)
(1.12372 0.278589 -1.71475e-19)
(1.30095 0.344503 7.56093e-20)
(1.31309 0.352184 -1.04044e-19)
(1.27512 0.35937 7.01753e-20)
(1.22662 0.358274 -1.17567e-20)
(1.17461 0.356178 3.72513e-21)
(1.11939 0.349891 -2.42186e-20)
(1.061 0.338515 -3.82104e-20)
(0.999673 0.320588 -9.01697e-20)
(0.941712 0.296578 -2.1896e-19)
(0.894504 0.272138 -7.38488e-20)
(0.860218 0.251679 2.82214e-21)
(0.833982 0.233876 -1.74468e-19)
(0.811899 0.219146 -6.29029e-21)
(0.789882 0.205185 1.70405e-19)
(0.749761 0.189075 -5.30024e-20)
(0.645318 0.159728 -3.11853e-20)
(0.42588 0.104966 0)
(0.133865 0.0342731 7.33386e-19)
(0.513246 0.161162 0)
(1.11479 0.330535 5.2914e-20)
(1.30245 0.409095 0)
(1.31612 0.416136 -1.21035e-20)
(1.2755 0.421295 -8.51969e-20)
(1.22478 0.416296 1.85924e-20)
(1.16994 0.410296 4.48189e-22)
(1.11139 0.400071 4.39182e-20)
(1.04916 0.384912 -2.30167e-20)
(0.984152 0.36309 3.94995e-20)
(0.924157 0.335702 1.18005e-19)
(0.877501 0.309643 1.63523e-19)
(0.840839 0.287008 -1.02092e-19)
(0.811913 0.268149 1.88945e-19)
(0.789581 0.252269 -1.51822e-19)
(0.76843 0.239612 0)
(0.731305 0.221642 -4.06016e-19)
(0.633892 0.191221 5.4587e-19)
(0.423208 0.125988 4.14109e-20)
(0.134302 0.0412351 -7.72498e-19)
(0.496186 0.182014 -5.80951e-21)
(1.10352 0.380075 -1.39987e-19)
(1.29851 0.470443 -4.17168e-19)
(1.3136 0.477306 2.30075e-19)
(1.27092 0.481054 -5.06039e-20)
(1.21894 0.472706 2.77081e-20)
(1.16212 0.463325 -1.20284e-20)
(1.10114 0.449473 -2.48238e-21)
(1.03613 0.430682 -7.96893e-20)
(0.968468 0.4052 1.01879e-21)
(0.905313 0.374958 -1.28232e-19)
(0.8545 0.345003 -1.739e-19)
(0.818389 0.320817 1.15141e-19)
(0.791547 0.300873 -6.78927e-20)
(0.769108 0.284858 1.65217e-19)
(0.74778 0.270967 0)
(0.712998 0.252226 -2.51473e-19)
(0.619555 0.218084 3.72042e-19)
(0.414577 0.144771 7.13605e-19)
(0.131552 0.0463865 -8.36323e-19)
(0.481378 0.200778 -6.86705e-19)
(1.08921 0.426422 3.46787e-19)
(1.29091 0.528815 2.6854e-19)
(1.30734 0.535635 -2.49318e-19)
(1.26314 0.538043 1.11545e-20)
(1.21035 0.526706 7.40155e-20)
(1.15203 0.514498 3.8218e-23)
(1.08909 0.497437 -1.60117e-20)
(1.02173 0.475366 -4.94056e-20)
(0.951271 0.446457 8.72822e-20)
(0.885511 0.411669 1.20672e-19)
(0.834998 0.379873 2.72476e-19)
(0.79706 0.353468 0)
(0.767798 0.331809 5.40633e-21)
(0.745832 0.313074 -4.59621e-19)
(0.726374 0.299795 1.05509e-19)
(0.694513 0.280313 5.3985e-19)
(0.604648 0.241395 -1.58081e-19)
(0.40256 0.159817 3.3875e-19)
(0.12688 0.0505093 -2.79036e-20)
(0.471253 0.219259 6.51067e-21)
(1.07591 0.470939 3.20825e-19)
(1.28083 0.584575 2.03725e-19)
(1.29819 0.591215 -4.44108e-19)
(1.25277 0.591964 2.83419e-19)
(1.19949 0.577964 -9.10356e-20)
(1.14004 0.56341 -3.53669e-21)
(1.07563 0.543627 3.22799e-20)
(1.00644 0.518675 8.64059e-20)
(0.933856 0.486227 -1.1304e-19)
(0.866588 0.448925 0)
(0.813979 0.413464 -1.07827e-19)
(0.775725 0.38392 1.23794e-19)
(0.748146 0.360721 1.67311e-19)
(0.725994 0.342012 -9.5967e-20)
(0.704961 0.325156 -2.42773e-19)
(0.67218 0.303164 -7.38614e-20)
(0.584711 0.261174 -1.2288e-21)
(0.388891 0.171812 0)
(0.120938 0.0538461 0)
(0.462251 0.235759 -3.38978e-19)
(1.06188 0.512352 0)
(1.26921 0.636961 2.33453e-19)
(1.28757 0.644126 -1.07552e-19)
(1.24124 0.643166 -2.9509e-19)
(1.18742 0.62656 8.13599e-20)
(1.12685 0.609901 -9.73551e-21)
(1.0611 0.587728 -1.32379e-20)
(0.990272 0.560141 5.27226e-20)
(0.915456 0.524601 -4.7407e-20)
(0.844853 0.483349 6.75721e-20)
(0.789438 0.44354 3.36429e-19)
(0.749844 0.411742 1.32252e-20)
(0.720061 0.385361 -1.70568e-19)
(0.699832 0.363951 3.30462e-19)
(0.683018 0.34766 4.46503e-21)
(0.654569 0.325529 7.90232e-20)
(0.568727 0.279312 -3.85533e-19)
(0.374026 0.181817 3.91342e-19)
(0.114324 0.0559496 -4.66727e-19)
(0.456062 0.255626 2.72652e-23)
(1.0493 0.552209 0)
(1.25666 0.686198 0)
(1.27562 0.694313 1.00399e-19)
(1.22853 0.691722 1.15588e-19)
(1.1743 0.672663 -6.82045e-20)
(1.11275 0.654011 4.53139e-20)
(1.04583 0.629722 0)
(0.973367 0.599823 -8.72819e-20)
(0.896019 0.561839 1.65428e-19)
(0.823174 0.517437 2.06931e-19)
(0.768539 0.476119 -1.27099e-19)
(0.730527 0.440992 -1.5977e-19)
(0.704256 0.413439 3.78132e-19)
(0.681237 0.390231 -1.16887e-19)
(0.66 0.36884 -1.42107e-19)
(0.628117 0.343521 -8.71285e-20)
(0.544272 0.292546 -4.18425e-19)
(0.357802 0.189246 5.84243e-20)
(0.106713 0.0571366 5.07253e-19)
(0.452444 0.274605 -1.35456e-19)
(1.03737 0.589363 -2.13383e-19)
(1.24352 0.731954 2.38095e-20)
(1.26306 0.741565 1.68554e-22)
(1.21549 0.737804 3.83484e-20)
(1.16089 0.716495 -1.81969e-19)
(1.09839 0.695943 0)
(1.0303 0.669692 1.2062e-20)
(0.956406 0.637798 -9.51116e-21)
(0.877356 0.597386 2.59222e-19)
(0.803253 0.549943 -5.28589e-20)
(0.74435 0.503611 5.78537e-20)
(0.700791 0.464312 0)
(0.668943 0.431703 -2.06594e-19)
(0.651422 0.405479 2.58065e-19)
(0.636966 0.387294 0)
(0.610529 0.358452 -1.91269e-19)
(0.52637 0.305915 5.59e-19)
(0.34061 0.194624 6.67702e-20)
(0.0985719 0.0570372 -6.28995e-19)
(0.450258 0.291683 -3.00557e-19)
(1.02662 0.624673 3.8508e-19)
(1.23015 0.774713 0)
(1.24989 0.785717 2.49962e-19)
(1.20194 0.781098 0)
(1.14718 0.758017 1.7081e-19)
(1.08401 0.735811 0)
(1.01505 0.707796 0)
(0.94001 0.674113 -3.07532e-20)
(0.858818 0.631845 -2.53266e-19)
(0.781127 0.582327 -3.84711e-19)
(0.720845 0.533823 7.35849e-20)
(0.681087 0.492713 2.75982e-19)
(0.65556 0.458582 2.32781e-19)
(0.632706 0.4319 -8.28195e-19)
(0.612245 0.402101 -3.43244e-19)
(0.580672 0.374267 1.99411e-19)
(0.499729 0.313827 0)
(0.32199 0.197569 5.78209e-19)
(0.0895829 0.05583 -6.82953e-19)
(0.448501 0.307502 3.31718e-19)
(1.01602 0.657589 -4.23165e-19)
(1.21673 0.81449 0)
(1.23659 0.826968 -1.00739e-20)
(1.18841 0.821733 -1.02864e-19)
(1.13362 0.797192 0)
(1.06995 0.773574 -1.48156e-20)
(1.00028 0.74404 1.88579e-20)
(0.923943 0.708832 -3.64451e-20)
(0.840617 0.664888 2.41441e-20)
(0.760264 0.612393 0)
(0.697967 0.559631 2.92863e-19)
(0.651824 0.512963 3.78362e-21)
(0.617221 0.473957 1.26595e-19)
(0.598717 0.439028 1.52755e-19)
(0.586285 0.41734 0)
(0.562078 0.38179 -3.38154e-19)
(0.479525 0.320532 6.62921e-19)
(0.302847 0.198182 -7.07137e-19)
(0.0807414 0.0534051 1.48468e-18)
(0.446873 0.322627 0)
(1.00614 0.689147 0)
(1.20356 0.851716 -2.31667e-19)
(1.22321 0.865362 0)
(1.17477 0.859517 0)
(1.12006 0.833882 2.45352e-19)
(1.0561 0.809156 -1.86965e-20)
(0.985796 0.778398 1.6709e-20)
(0.908251 0.741855 -1.46968e-21)
(0.822886 0.696795 0)
(0.740275 0.64303 -6.18852e-20)
(0.67393 0.588803 -2.43063e-19)
(0.627533 0.539589 -3.06311e-19)
(0.600971 0.496477 -1.27657e-19)
(0.579672 0.463079 1.68511e-19)
(0.560214 0.428064 -4.00578e-19)
(0.529916 0.393322 7.32767e-19)
(0.450152 0.323766 8.22092e-21)
(0.282653 0.196464 -6.84489e-19)
(0.071605 0.0501413 -1.01675e-19)
(0.445201 0.337347 0)
(0.996524 0.718819 -3.29055e-19)
(1.19068 0.886542 2.59004e-19)
(1.21011 0.901377 0)
(1.16147 0.8949 0)
(1.10679 0.868206 -5.42038e-19)
(1.04256 0.842548 0)
(0.97179 0.810782 0)
(0.893293 0.773232 -5.75678e-20)
(0.806391 0.727209 4.82329e-20)
(0.720769 0.671551 -4.89006e-19)
(0.650074 0.614364 0)
(0.59951 0.562857 -3.32266e-19)
(0.560058 0.514421 1.1745e-20)
(0.540592 0.470352 -5.38202e-19)
(0.530495 0.437044 2.17281e-19)
(0.50813 0.391492 4.28837e-21)
(0.429831 0.322696 -7.85965e-19)
(0.263904 0.192438 3.72799e-19)
(0.0648234 0.0465869 1.0878e-19)
(0.443592 0.351555 0)
(0.987661 0.747188 -3.883e-19)
(1.17825 0.919204 2.75132e-19)
(1.19722 0.934975 5.78412e-19)
(1.14832 0.927817 1.17621e-19)
(1.09376 0.900243 -8.21035e-20)
(1.02934 0.873796 5.12538e-20)
(0.958217 0.841233 -1.0313e-19)
(0.87877 0.803035 6.1581e-20)
(0.789685 0.756544 2.87817e-19)
(0.700456 0.701106 4.05527e-19)
(0.62669 0.643995 7.85208e-20)
(0.571602 0.587349 4.82949e-19)
(0.541122 0.535006 3.1487e-19)
(0.517418 0.489969 3.88857e-19)
(0.49922 0.440012 -2.43859e-19)
(0.473763 0.399205 -2.90554e-19)
(0.399477 0.319018 3.42446e-19)
(0.24171 0.184091 -2.02878e-19)
(0.059509 0.0435416 3.56112e-19)
(0.441979 0.365133 5.12887e-19)
(0.979048 0.773609 6.16461e-19)
(1.1662 0.949738 1.50806e-19)
(1.18482 0.966553 1.59731e-20)
(1.13581 0.958756 -4.08189e-19)
(1.0813 0.930259 1.56857e-19)
(1.01672 0.903083 -5.85233e-20)
(0.945349 0.869894 -2.1171e-20)
(0.86516 0.831246 -4.95413e-20)
(0.774874 0.784592 -3.22616e-19)
(0.683878 0.728335 2.38845e-20)
(0.605964 0.667789 0)
(0.547467 0.610117 0)
(0.496972 0.554609 -1.59694e-19)
(0.471923 0.494186 -6.38916e-19)
(0.461966 0.44885 5.29124e-19)
(0.446753 0.380369 3.25221e-19)
(0.383117 0.298982 0)
(0.24026 0.162771 6.4694e-19)
(0.0541439 0.0269194 -3.87311e-19)
(0.440422 0.377858 -2.73988e-19)
(0.971071 0.798751 2.36116e-19)
(1.15462 0.978372 -3.36887e-19)
(1.17269 0.995965 -3.63249e-19)
(1.12356 0.987544 -1.6097e-19)
(1.06927 0.958301 3.75588e-20)
(1.00467 0.930533 0)
(0.933142 0.896823 1.48874e-19)
(0.852273 0.857737 1.01057e-20)
(0.760343 0.81105 0)
(0.666014 0.755366 0)
(0.583981 0.696584 5.51236e-20)
(0.517537 0.63724 8.52781e-20)
(0.476923 0.576327 -1.71883e-19)
(0.444782 0.520053 4.62148e-19)
(0.420277 0.445734 -5.82157e-19)
(0.399036 0.378071 -7.01433e-19)
(0.355842 0.277778 6.24008e-19)
(0.258078 0.170891 -2.33595e-19)
(0.132008 0.0999787 1.33814e-19)
(0.438621 0.38967 3.16339e-19)
(0.963088 0.821842 0)
(1.14341 1.00496 0)
(1.16117 1.0235 -1.22453e-19)
(1.11207 1.01456 9.91056e-20)
(1.05797 0.984583 -2.06308e-20)
(0.993312 0.956259 -2.23167e-19)
(0.921642 0.922072 -2.28283e-19)
(0.840206 0.882879 3.7603e-20)
(0.747136 0.836436 -2.61857e-20)
(0.64991 0.781454 6.38582e-20)
(0.561923 0.722235 -4.49829e-19)
(0.493953 0.663155 -4.98494e-19)
(0.429925 0.601086 -9.14359e-20)
(0.387489 0.528122 0)
(0.366196 0.459866 -1.34797e-20)
(0.351771 0.337331 3.84279e-19)
(0.317651 0.186567 -6.56255e-19)
(0.285348 0.0167151 4.85166e-19)
(0.0870716 -0.0759252 3.87468e-19)
(0.436783 0.400803 -6.89721e-19)
(0.955649 0.843982 -2.96449e-19)
(1.13256 1.03007 5.91452e-21)
(1.14977 1.04929 1.55668e-19)
(1.10069 1.03988 0)
(1.04686 1.00941 4.66151e-19)
(0.982292 0.980768 2.78218e-19)
(0.910603 0.946359 -4.57023e-20)
(0.828616 0.907255 -5.21874e-21)
(0.734266 0.861273 -2.44673e-20)
(0.635338 0.807552 2.27257e-20)
(0.547075 0.75164 3.97793e-19)
(0.466078 0.693197 4.87496e-19)
(0.410404 0.627677 8.78891e-20)
(0.359703 0.566179 4.87668e-19)
(0.305047 0.464155 0)
(0.213614 0.343636 0)
(0.068025 0.322262 4.86715e-19)
(-0.0563956 0.633102 -3.29858e-20)
(-0.00173863 1.47719 -6.2763e-19)
(0.43454 0.411372 3.7507e-19)
(0.948097 0.864264 8.88509e-19)
(1.12201 1.0535 -1.33467e-18)
(1.13892 1.07372 8.04824e-19)
(1.0899 1.06407 -9.44191e-20)
(1.03625 1.03325 6.07895e-19)
(0.971645 1.00447 0)
(0.899927 0.970106 2.35736e-19)
(0.817538 0.931394 0)
(0.72214 0.886504 2.20262e-19)
(0.619603 0.83418 -3.64485e-20)
(0.521241 0.779237 4.08676e-20)
(0.443063 0.72425 5.36798e-19)
(0.359036 0.669108 -1.99685e-19)
(0.275659 0.59216 -2.56562e-19)
(0.208159 0.531655 0)
(0.112908 0.617244 0)
(0.0486133 1.21224 0)
(0.0836449 2.40731 -2.74215e-19)
(0.116076 2.88351 -1.69908e-19)
(0.432281 0.421588 0)
(0.94119 0.883895 0)
(1.11183 1.0758 4.77432e-19)
(1.1282 1.09668 -6.7092e-19)
(1.07918 1.08683 4.61209e-19)
(1.02582 1.05589 -5.57255e-19)
(0.961348 1.02721 -3.2275e-20)
(0.889661 0.993023 2.51298e-20)
(0.806845 0.95503 4.30052e-21)
(0.710211 0.911267 -2.50007e-19)
(0.607076 0.861406 5.4634e-20)
(0.512278 0.81287 3.69539e-19)
(0.414635 0.763172 -5.28624e-19)
(0.340397 0.698825 -6.21112e-19)
(0.277405 0.657114 2.1755e-19)
(0.213839 0.771733 0)
(0.155238 1.46292 3.14208e-19)
(0.156117 2.6557 3.56488e-19)
(0.158664 3.07549 -3.98951e-19)
(0.149876 3.21724 4.46202e-19)
(0.42977 0.430695 0)
(0.934077 0.901526 7.21947e-19)
(1.10197 1.09643 -1.23733e-19)
(1.11813 1.11838 8.44053e-19)
(1.06917 1.1085 -4.84108e-19)
(1.01597 1.07749 0)
(0.951481 1.04899 0)
(0.879879 1.01524 0)
(0.796854 0.978198 -8.69867e-20)
(0.69984 0.936151 1.02001e-21)
(0.593741 0.889077 0)
(0.489161 0.84076 -3.6016e-19)
(0.408698 0.796002 0)
(0.30022 0.758361 4.41757e-19)
(0.223569 0.836386 -2.84951e-19)
(0.178624 1.42431 -2.39799e-19)
(0.191472 2.64655 -5.92209e-19)
(0.210052 3.12425 -2.9374e-19)
(0.198769 3.27475 -3.32186e-19)
(0.183456 3.31668 2.95886e-19)
(0.427405 0.439241 -2.43968e-19)
(0.92765 0.91874 1.47261e-20)
(1.09252 1.11619 -1.33304e-19)
(1.10818 1.13881 -6.75576e-19)
(1.0592 1.12891 0)
(1.00628 1.09805 0)
(0.94195 1.06994 0)
(0.870517 1.03677 -1.63454e-20)
(0.787365 1.0009 1.00302e-19)
(0.689622 0.96092 0)
(0.58222 0.917474 0)
(0.480446 0.878601 0)
(0.369473 0.841402 0)
(0.306691 0.840772 2.86504e-19)
(0.295739 1.17443 7.48869e-19)
(0.289134 2.30542 2.346e-19)
(0.301902 3.07759 4.20996e-19)
(0.292211 3.29587 -2.6016e-19)
(0.240019 3.36632 9.62614e-20)
(0.205104 3.37941 0)
(0.424749 0.447092 2.47195e-19)
(0.920682 0.934322 -1.55648e-18)
(1.08313 1.13487 -4.40171e-19)
(1.09869 1.15865 -1.07531e-19)
(1.04979 1.1489 1.23597e-19)
(0.997061 1.11815 -8.73509e-19)
(0.932801 1.09045 5.93274e-20)
(0.861588 1.0579 4.14691e-19)
(0.778518 1.02332 0)
(0.680759 0.985374 -1.39383e-20)
(0.572931 0.944219 1.26797e-20)
(0.469756 0.903223 0)
(0.388881 0.882427 0)
(0.34055 1.00329 -3.54355e-19)
(0.310706 1.80533 -6.77009e-21)
(0.307635 2.91294 -1.18145e-19)
(0.325225 3.29767 1.82491e-19)
(0.297327 3.40595 4.74874e-20)
(0.228188 3.43407 1.34268e-19)
(0.20111 3.44261 -6.86652e-20)
(0.421893 0.455173 4.76175e-19)
(0.913848 0.951239 1.4885e-18)
(1.07331 1.15447 5.41267e-19)
(1.08847 1.17885 0)
(1.03963 1.1691 0)
(0.987299 1.13853 6.69234e-19)
(0.923303 1.11124 -4.15293e-19)
(0.852502 1.07938 -3.81094e-19)
(0.769625 1.04612 -1.53255e-20)
(0.671931 1.01084 1.49668e-20)
(0.563631 0.975432 -2.43311e-19)
(0.453637 0.947327 0)
(0.373349 0.96143 0)
(0.353795 1.31925 -1.90859e-19)
(0.375216 2.39866 -2.50392e-19)
(0.418673 3.19671 0)
(0.446545 3.39367 1.11974e-19)
(0.375966 3.46237 2.26803e-19)
(0.297079 3.50699 -5.10949e-19)
(0.270074 3.53305 2.94635e-19)
(0.418212 0.463099 -9.03156e-19)
(0.905468 0.967561 -7.08117e-19)
(1.06255 1.17438 0)
(1.07782 1.19994 0)
(1.02925 1.19028 0)
(0.977245 1.15961 0)
(0.913589 1.13264 4.43689e-19)
(0.843282 1.10128 -4.89673e-19)
(0.760985 1.06922 0)
(0.663798 1.03602 -7.90724e-21)
(0.556297 1.00165 3.94602e-19)
(0.459174 0.974767 2.10803e-20)
(0.410671 1.05067 3.6514e-20)
(0.42572 1.6949 2.75444e-19)
(0.453243 2.8573 -6.31081e-20)
(0.487792 3.33421 0)
(0.469338 3.4718 -8.72116e-20)
(0.37527 3.56175 1.06697e-19)
(0.28297 3.63779 3.70557e-19)
(0.204908 3.62025 -3.2638e-19)
(0.414164 0.471622 4.28028e-19)
(0.897044 0.986285 -6.95807e-19)
(1.05091 1.19601 0)
(1.06588 1.22185 -1.72709e-19)
(1.01754 1.21198 6.55884e-19)
(0.966188 1.18129 0)
(0.903073 1.15447 0)
(0.83369 1.12359 9.1511e-19)
(0.752123 1.09271 1.6034e-20)
(0.656348 1.06196 -1.01483e-19)
(0.54765 1.03501 -1.6319e-19)
(0.454482 1.03099 1.32111e-19)
(0.424192 1.22543 0)
(0.464663 2.07944 -1.2582e-19)
(0.519875 3.12101 1.10531e-19)
(0.580414 3.4436 -5.63205e-20)
(0.576277 3.5559 0)
(0.498982 3.66421 -2.14565e-19)