/*--------------------------------*- C++ -*----------------------------------*\
| =========                 |                                                 |
| \\      /  F ield         | OpenFOAM: The Open Source CFD Toolbox           |
|  \\    /   O peration     | Version:  v2012                                 |
|   \\  /    A nd           | Website:  www.openfoam.com                      |
|    \\/     M anipulation  |                                                 |
\*---------------------------------------------------------------------------*/
FoamFile
{
    version     2.0;
    format      ascii;
    class       volScalarField;
    location    "68";
    object      p;
}
// * * * * * * * * * * * * * * * * * * * * * * * * * * * * * * * * * * * * * //

dimensions      [0 2 -2 0 0 0 0];


internalField   nonuniform List<scalar> 
2200
(
0.771494
0.749996
0.734092
0.71843
0.703826
0.691319
0.68098
0.672895
0.667216
0.664302
0.664837
0.668673
0.675043
0.683622
0.694317
0.707101
0.721902
0.737838
0.753886
0.775384
0.703915
0.700658
0.697736
0.693623
0.688169
0.681706
0.675103
0.669173
0.664702
0.662371
0.662879
0.666241
0.671446
0.677926
0.684927
0.69169
0.697355
0.701452
0.704303
0.707667
0.663976
0.664198
0.666263
0.667614
0.668012
0.66717
0.665203
0.662548
0.660036
0.658585
0.65919
0.661696
0.665018
0.668274
0.670624
0.671635
0.671371
0.67037
0.668727
0.668479
0.641467
0.642921
0.645519
0.647976
0.65043
0.652465
0.65364
0.653899
0.653562
0.653317
0.65401
0.655435
0.656679
0.657099
0.656437
0.654781
0.652636
0.650464
0.647863
0.646458
0.627081
0.629054
0.631877
0.634724
0.637597
0.640444
0.642926
0.64482
0.646088
0.64694
0.647743
0.648269
0.648077
0.647014
0.645182
0.642826
0.640288
0.637569
0.634782
0.632859
0.619702
0.621301
0.623511
0.626051
0.628732
0.63142
0.634039
0.636492
0.638561
0.640147
0.641085
0.64118
0.6404
0.638926
0.637067
0.634954
0.632642
0.630305
0.628208
0.626634
0.616225
0.617247
0.618524
0.620403
0.622566
0.624758
0.626989
0.62933
0.631609
0.633526
0.634646
0.634739
0.634033
0.632881
0.63153
0.630004
0.62833
0.626769
0.625661
0.624644
0.613503
0.614172
0.614811
0.616127
0.617763
0.619478
0.621271
0.623252
0.625394
0.627449
0.628805
0.629215
0.628973
0.628413
0.627682
0.626775
0.625749
0.624843
0.624406
0.623727
0.610184
0.610628
0.611033
0.612045
0.613331
0.614749
0.616294
0.618027
0.61997
0.622054
0.623691
0.624588
0.62494
0.624963
0.62474
0.624314
0.623769
0.623263
0.623085
0.62262
0.606047
0.606343
0.606706
0.60759
0.608723
0.610028
0.611511
0.613189
0.615089
0.617246
0.619266
0.62072
0.621611
0.622082
0.622242
0.622167
0.621917
0.62162
0.621505
0.621178
0.601229
0.60143
0.601808
0.602653
0.603772
0.605117
0.606692
0.608508
0.610585
0.612972
0.615426
0.617417
0.618768
0.619595
0.620025
0.620186
0.620123
0.619982
0.619892
0.619651
0.595903
0.596047
0.596424
0.597251
0.598419
0.59989
0.601658
0.603726
0.606133
0.608967
0.61197
0.614485
0.616252
0.617406
0.618089
0.618439
0.61859
0.618598
0.618541
0.618348
0.590145
0.590253
0.590636
0.591472
0.592726
0.594362
0.596375
0.598794
0.601675
0.605098
0.608744
0.611844
0.614068
0.615565
0.616545
0.617155
0.617521
0.61767
0.617658
0.617485
0.583971
0.584037
0.584428
0.585296
0.586654
0.58847
0.59075
0.593559
0.597011
0.601159
0.605632
0.609431
0.612187
0.614139
0.615514
0.616444
0.61706
0.617361
0.617391
0.617224
0.57721
0.577247
0.577672
0.578592
0.580112
0.582158
0.584764
0.588053
0.592193
0.597247
0.602653
0.607258
0.610709
0.613227
0.615078
0.616391
0.617275
0.617736
0.617814
0.617647
0.569838
0.569796
0.570234
0.571265
0.573006
0.575327
0.578314
0.582153
0.587051
0.593121
0.599687
0.605346
0.60965
0.612897
0.615332
0.617088
0.61828
0.618907
0.619035
0.618861
0.561533
0.561534
0.561966
0.563075
0.565064
0.567701
0.57116
0.575669
0.581489
0.588785
0.596743
0.603686
0.609043
0.613161
0.616265
0.618555
0.620099
0.620905
0.62109
0.620904
0.552094
0.552111
0.552569
0.553837
0.556125
0.559208
0.563308
0.568672
0.575628
0.584441
0.594036
0.602478
0.609095
0.61417
0.618052
0.620911
0.622857
0.623856
0.624092
0.623886
0.541151
0.541124
0.541699
0.543191
0.545826
0.549484
0.554401
0.560847
0.569197
0.579769
0.591477
0.601711
0.609716
0.615916
0.620659
0.624215
0.626614
0.6278
0.628083
0.627851
0.528082
0.52801
0.528697
0.530572
0.533801
0.538267
0.544271
0.55215
0.562335
0.575111
0.589125
0.601417
0.611046
0.61852
0.624268
0.628552
0.631432
0.632815
0.633129
0.632869
0.512703
0.512595
0.513368
0.51559
0.519561
0.525124
0.532581
0.542327
0.554847
0.570394
0.58711
0.601729
0.613113
0.621995
0.628833
0.63398
0.637381
0.63893
0.639255
0.63896
0.49396
0.493887
0.49491
0.497688
0.502619
0.509613
0.519042
0.531312
0.546832
0.565675
0.58555
0.602663
0.615991
0.626387
0.634447
0.640496
0.644387
0.646099
0.646405
0.64608
0.470777
0.470624
0.471957
0.475607
0.482089
0.491277
0.503476
0.519069
0.538283
0.560986
0.584466
0.604409
0.619861
0.631828
0.641127
0.648071
0.652421
0.654227
0.654469
0.654121
0.441022
0.44105
0.44316
0.448244
0.457047
0.469405
0.485462
0.505338
0.529028
0.556264
0.583755
0.606744
0.624383
0.638099
0.648747
0.656579
0.661273
0.66312
0.663263
0.662897
0.401728
0.401981
0.405547
0.413573
0.426398
0.443695
0.46507
0.490408
0.519509
0.551918
0.583797
0.609953
0.62991
0.645331
0.657239
0.665828
0.670714
0.672464
0.672484
0.672125
0.34941
0.349868
0.356976
0.370334
0.389752
0.414368
0.44282
0.474841
0.510173
0.548251
0.584677
0.614108
0.636307
0.653412
0.66653
0.67563
0.68032
0.681666
0.681541
0.681248
0.281036
0.283789
0.299068
0.320834
0.349215
0.382755
0.419419
0.458902
0.501082
0.545485
0.587025
0.620096
0.645049
0.664208
0.678554
0.688089
0.692411
0.693174
0.693072
0.69286
0.203181
0.212945
0.238496
0.269996
0.308589
0.351328
0.396245
0.443485
0.492981
0.544071
0.591192
0.62851
0.656571
0.677741
0.693512
0.703194
0.706965
0.707182
0.707201
0.707072
0.133888
0.148551
0.180608
0.221232
0.269544
0.321171
0.374221
0.429234
0.485954
0.54361
0.596192
0.637556
0.668178
0.69129
0.707967
0.717515
0.720908
0.720868
0.72101
0.720949
0.0810999
0.09468
0.131452
0.178159
0.233968
0.29328
0.353804
0.416049
0.479631
0.543793
0.601744
0.646814
0.679966
0.704704
0.722297
0.732195
0.735087
0.735331
0.735523
0.735518
0.0373939
0.0501802
0.090967
0.141677
0.202961
0.268234
0.335189
0.403984
0.473957
0.544108
0.606998
0.655671
0.691542
0.718037
0.736812
0.747091
0.750542
0.751158
0.751242
0.75129
0.000426322
0.0132601
0.056691
0.110303
0.17595
0.246094
0.318575
0.393065
0.468667
0.544214
0.611976
0.664384
0.702671
0.730836
0.75091
0.761967
0.765678
0.76626
0.766287
0.766352
-0.0319342
-0.0188465
0.0267642
0.082984
0.152299
0.226479
0.3036
0.382949
0.463614
0.544475
0.617164
0.672906
0.713325
0.743175
0.764455
0.775743
0.779816
0.780452
0.780511
0.780559
-0.0604162
-0.0474534
-0.0001104
0.0585437
0.131044
0.208697
0.289854
0.373548
0.459014
0.545038
0.622115
0.680787
0.723396
0.75447
0.77662
0.788467
0.792748
0.79349
0.793536
0.793571
-0.0864363
-0.0734319
-0.0248011
0.0362151
0.111549
0.192288
0.277056
0.364742
0.454626
0.545136
0.62612
0.687835
0.732522
0.764872
0.787405
0.79971
0.80434
0.805166
0.805222
0.805237
-0.110349
-0.097274
-0.0478251
0.0154181
0.0932557
0.176796
0.264847
0.356089
0.449792
0.544321
0.629444
0.694283
0.740762
0.774031
0.796946
0.80982
0.814541
0.815485
0.815538
0.815533
-0.132929
-0.119501
-0.0694317
-0.00420064
0.0758307
0.161912
0.252855
0.347152
0.444297
0.542897
0.63224
0.70002
0.74817
0.782621
0.805696
0.818736
0.823571
0.824567
0.824609
0.824582
-0.154192
-0.140524
-0.0898416
-0.0228988
0.0589889
0.147294
0.240758
0.33781
0.438234
0.540752
0.634079
0.705106
0.755264
0.790542
0.813819
0.82675
0.831532
0.832539
0.832549
0.832498
-0.1743
-0.160653
-0.109245
-0.0408874
0.0425447
0.132797
0.228517
0.328122
0.431592
0.537756
0.635129
0.709626
0.762008
0.79838
0.821619
0.833889
0.8386
0.839443
0.839494
0.839403
-0.193599
-0.179774
-0.127835
-0.0583256
0.0264142
0.118373
0.216123
0.318093
0.424378
0.533959
0.635359
0.713534
0.76866
0.806126
0.829154
0.840833
0.844846
0.845548
0.845465
0.845379
-0.212514
-0.198149
-0.145786
-0.0752961
0.0105782
0.104052
0.203634
0.307744
0.416557
0.529299
0.634707
0.716917
0.775179
0.814397
0.837145
0.847573
0.850559
0.850788
0.850774
0.850827
-0.230991
-0.215905
-0.163199
-0.0918217
-0.00493486
0.0898659
0.19104
0.297024
0.408101
0.523783
0.633095
0.719618
0.78167
0.823223
0.846081
0.855142
0.856022
0.855587
0.855271
0.855103
-0.249045
-0.233262
-0.180139
-0.107899
-0.0201137
0.0758278
0.178355
0.285956
0.399063
0.517434
0.630443
0.721491
0.787874
0.83289
0.856967
0.864176
0.862505
0.860852
0.860731
0.86179
-0.266467
-0.250167
-0.196593
-0.123529
-0.0349452
0.0619559
0.165595
0.274582
0.389517
0.510286
0.626645
0.722268
0.793699
0.843201
0.870067
0.876717
0.872151
0.865179
0.860499
0.859695
-0.283312
-0.266617
-0.21254
-0.138699
-0.0494241
0.0482719
0.15283
0.263008
0.379562
0.502429
0.62169
0.721732
0.798455
0.853924
0.885653
0.893679
0.88872
0.878396
0.878888
0.883056
-0.299501
-0.282473
-0.227916
-0.153389
-0.0635183
0.0348359
0.140144
0.251328
0.369272
0.493907
0.61557
0.719591
0.801906
0.864048
0.902643
0.9154
0.909554
0.880371
0.84325
0.811119
-0.315049
-0.297778
-0.242757
-0.16766
-0.0773194
0.02154
0.127423
0.239395
0.358432
0.484494
0.608118
0.715452
0.802848
0.87268
0.920499
0.941034
0.948464
0.92169
0.93931
1.0018
-0.329874
-0.312504
-0.257129
-0.181649
-0.0909945
0.00818379
0.114407
0.226859
0.346577
0.47362
0.598703
0.708431
0.80027
0.876822
0.930988
0.956456
0.955589
0.926161
0.881377
0.899045
-0.343988
-0.326683
-0.271
-0.195285
-0.104454
-0.00513529
0.101213
0.213843
0.333825
0.461346
0.587245
0.69826
0.791898
0.871829
0.927732
0.953902
0.931923
0.871749
0.805192
0.792012
-0.357352
-0.340246
-0.284346
-0.208571
-0.117696
-0.0184104
0.0878425
0.200351
0.320189
0.447628
0.573586
0.684537
0.777368
0.854011
0.90497
0.904845
0.864125
0.782078
0.705009
0.6789
-0.370023
-0.353251
-0.297204
-0.221518
-0.13074
-0.0316667
0.0742857
0.186402
0.305716
0.432505
0.557639
0.66697
0.755117
0.820416
0.846667
0.828545
0.762922
0.657699
0.568007
0.543341
-0.382422
-0.366021
-0.309928
-0.234492
-0.143939
-0.0452112
0.0602766
0.17177
0.290222
0.41578
0.539115
0.644919
0.725922
0.774855
0.767517
0.728469
0.610757
0.484734
0.374908
0.345494
-0.395409
-0.379414
-0.323234
-0.248084
-0.157834
-0.0595166
0.0454166
0.156138
0.273461
0.397277
0.517817
0.617962
0.691713
0.714998
0.680314
0.586983
0.426983
0.2713
0.139455
0.109852
-0.409474
-0.393686
-0.337367
-0.262537
-0.172611
-0.0746998
0.029632
0.139462
0.255423
0.376989
0.493633
0.586969
0.649946
0.643841
0.590596
0.436225
0.233811
0.0191139
-0.162492
-0.212791
-0.424761
-0.409092
-0.352468
-0.277853
-0.188233
-0.0907352
0.0129492
0.12178
0.236167
0.355023
0.466577
0.553387
0.601059
0.563071
0.473829
0.283311
0.0509453
-0.238817
-0.559905
-0.709812
-0.441317
-0.425547
-0.368564
-0.294155
-0.204784
-0.107683
-0.00469469
0.103024
0.215638
0.331379
0.436875
0.516947
0.546234
0.477779
0.338685
0.132097
-0.101891
-0.445754
-1.0304
-1.601
-0.45926
-0.443348
-0.385836
-0.31147
-0.222261
-0.125544
-0.023275
0.0832712
0.193998
0.306445
0.405696
0.477575
0.487331
0.402731
0.208973
-0.0248973
-0.227376
-0.461366
-1.01243
-2.51291
-0.478586
-0.462334
-0.404266
-0.32997
-0.240864
-0.144519
-0.043028
0.0622424
0.170911
0.279848
0.372872
0.434863
0.42339
0.343658
0.115385
-0.122086
-0.270146
-0.307558
-0.296486
-0.680534
-0.499251
-0.482938
-0.42417
-0.349896
-0.260942
-0.165102
-0.064579
0.0391725
0.145445
0.250287
0.337453
0.388578
0.360732
0.292785
0.0656573
-0.136313
-0.247256
-0.255622
-0.2029
-0.242895
-0.521124
-0.504699
-0.445375
-0.371383
-0.282654
-0.187442
-0.0881006
0.0138742
0.117378
0.217567
0.299547
0.34037
0.305772
0.238087
0.0331324
-0.126905
-0.209488
-0.217772
-0.265502
-0.269547
-0.544164
-0.527905
-0.468001
-0.394349
-0.305913
-0.211548
-0.113635
-0.0137158
0.0866929
0.182062
0.258971
0.289989
0.257914
0.176359
0.00474869
-0.11776
-0.188281
-0.165338
-0.185792
-0.18745
-0.568077
-0.551559
-0.491683
-0.418794
-0.330687
-0.237385
-0.141136
-0.0434959
0.0535084
0.144133
0.216091
0.236216
0.216505
0.108345
-0.0307572
-0.113165
-0.152316
-0.200559
-0.174688
-0.183354
-0.592826
-0.575906
-0.516507
-0.444426
-0.356613
-0.264754
-0.170393
-0.0752568
0.0179923
0.104173
0.171808
0.18136
0.173216
0.0471817
-0.0678829
-0.13153
-0.109202
-0.168878
-0.149475
-0.154501
-0.6172
-0.600068
-0.542135
-0.471004
-0.383534
-0.293506
-0.201182
-0.108674
-0.0196412
0.0625168
0.127284
0.129183
0.121083
-0.00382162
-0.0946462
-0.146015
-0.133575
-0.149177
-0.154407
-0.152679
-0.641023
-0.624013
-0.568079
-0.497715
-0.410909
-0.32318
-0.233022
-0.143338
-0.0588537
0.0195903
0.0828481
0.0810518
0.0637865
-0.0464766
-0.108418
-0.139962
-0.178266
-0.149769
-0.155449
-0.149842
-0.66306
-0.646781
-0.59289
-0.523771
-0.438675
-0.353396
-0.265527
-0.178754
-0.0988559
-0.0244176
0.0384126
0.037408
0.00789248
-0.0808978
-0.120944
-0.11458
-0.187187
-0.12991
-0.145005
-0.137141
-0.682867
-0.667715
-0.615924
-0.548094
-0.46609
-0.383185
-0.297865
-0.214273
-0.138656
-0.0688753
-0.00654313
-0.00289477
-0.0368759
-0.100052
-0.129009
-0.0883459
-0.134196
-0.116152
-0.122244
-0.118979
-0.69866
-0.685122
-0.635992
-0.570367
-0.492341
-0.411838
-0.329492
-0.249265
-0.177334
-0.113117
-0.0517736
-0.0407305
-0.0684319
-0.101292
-0.117247
-0.0944183
-0.108149
-0.112166
-0.113405
-0.113582
-0.709774
-0.698381
-0.652639
-0.589616
-0.515523
-0.438145
-0.359194
-0.28267
-0.214067
-0.155849
-0.0961086
-0.0758126
-0.0899414
-0.0969013
-0.108258
-0.118837
-0.111504
-0.11522
-0.113465
-0.114603
-0.714682
-0.705683
-0.664118
-0.604704
-0.534801
-0.46126
-0.386257
-0.31364
-0.24812
-0.195491
-0.136809
-0.109819
-0.118223
-0.0954168
-0.107618
-0.141196
-0.119267
-0.124723
-0.117986
-0.119008
-0.713548
-0.70666
-0.669496
-0.614071
-0.548559
-0.479554
-0.409081
-0.340728
-0.278735
-0.230163
-0.173079
-0.141831
-0.140359
-0.100757
-0.101539
-0.130262
-0.109181
-0.126755
-0.12379
-0.125845
-0.705393
-0.698116
-0.666017
-0.616365
-0.556342
-0.49242
-0.42681
-0.3627
-0.30417
-0.258189
-0.203603
-0.170081
-0.155362
-0.112869
-0.0560484
-0.0453066
-0.0577497
-0.0670205
-0.0706756
-0.0743585
-0.684497
-0.676162
-0.652329
-0.61024
-0.556607
-0.498358
-0.43826
-0.378205
-0.322416
-0.277821
-0.226398
-0.188945
-0.170996
-0.173749
-0.186099
-0.23124
-0.2433
-0.235517
-0.224918
-0.215846
-0.641674
-0.63385
-0.625522
-0.595676
-0.550377
-0.498397
-0.443226
-0.386209
-0.331452
-0.286243
-0.236713
-0.193368
-0.23898
-0.339199
-0.541862
-0.713061
-0.726533
-0.707492
-0.645498
-0.587699
-0.60118
-0.598442
-0.597095
-0.574188
-0.537914
-0.492898
-0.442328
-0.387263
-0.330616
-0.281149
-0.232166
-0.164985
-0.187015
-0.274506
-0.391722
-0.424205
-0.368297
-0.29961
-0.258389
-0.23588
-0.578185
-0.579984
-0.569732
-0.556253
-0.527627
-0.486592
-0.437133
-0.381941
-0.320269
-0.259455
-0.202296
-0.0913288
0.0416125
0.238475
0.42817
0.615356
0.753231
0.833516
0.876661
0.914159
-0.547005
-0.546648
-0.543669
-0.542455
-0.518383
-0.480838
-0.432054
-0.374785
-0.307121
-0.230054
-0.15091
-0.0180313
0.189933
0.502822
0.803295
1.05488
1.23125
1.33372
1.38239
1.39808
-0.53509
-0.533204
-0.536177
-0.528632
-0.511968
-0.477282
-0.427159
-0.36657
-0.294808
-0.205785
-0.108057
0.018105
0.250313
0.568019
0.876191
1.13473
1.32552
1.43669
1.48632
1.50251
-0.522256
-0.520598
-0.523825
-0.515635
-0.511077
-0.477133
-0.425746
-0.361788
-0.285969
-0.190466
-0.0845748
0.0206373
0.23956
0.517858
0.790579
1.02623
1.21036
1.3216
1.37117
1.3848
-0.512219
-0.512204
-0.511835
-0.511093
-0.508792
-0.475741
-0.425547
-0.361387
-0.283783
-0.187549
-0.0832703
-0.000618253
0.184401
0.42076
0.64621
0.840642
0.997423
1.09321
1.13478
1.14496
-0.506903
-0.508053
-0.506777
-0.511751
-0.506795
-0.477729
-0.428609
-0.364459
-0.287886
-0.196098
-0.0968798
-0.031366
0.11528
0.313844
0.494771
0.645184
0.765933
0.84071
0.872348
0.88008
-0.496411
-0.497056
-0.494517
-0.497616
-0.491214
-0.476106
-0.434079
-0.370529
-0.295938
-0.210619
-0.116876
-0.0618807
0.0477141
0.210918
0.353226
0.466384
0.555779
0.612205
0.636039
0.641187
-0.491563
-0.489315
-0.484169
-0.479459
-0.474036
-0.473262
-0.436689
-0.375353
-0.303344
-0.225835
-0.137845
-0.0887817
-0.0115636
0.119737
0.230732
0.315655
0.381406
0.423559
0.439647
0.443905
-0.513129
-0.509593
-0.505533
-0.502015
-0.502367
-0.497639
-0.44461
-0.379105
-0.307152
-0.237326
-0.156065
-0.110718
-0.0591627
0.0450493
0.130836
0.194323
0.242964
0.274297
0.285909
0.290063
-0.561754
-0.562516
-0.566494
-0.575012
-0.571611
-0.541011
-0.461121
-0.383312
-0.30678
-0.242659
-0.169484
-0.126829
-0.0928039
-0.0108163
0.0541315
0.101256
0.138346
0.162313
0.171681
0.174113
-0.587031
-0.592448
-0.606701
-0.618537
-0.614254
-0.56108
-0.467228
-0.38065
-0.299297
-0.239975
-0.176197
-0.136716
-0.112431
-0.0483152
-0.000629769
0.0336872
0.0613376
0.0780332
0.0852755
0.0871602
-0.522228
-0.527147
-0.545939
-0.557133
-0.555446
-0.509439
-0.432341
-0.355425
-0.281697
-0.226725
-0.17471
-0.14042
-0.119618
-0.0711379
-0.0369277
-0.0122419
0.00623209
0.0166468
0.0206442
0.0211185
-0.366839
-0.37404
-0.384126
-0.392702
-0.393115
-0.372434
-0.335569
-0.29276
-0.243669
-0.201134
-0.163839
-0.137055
-0.117841
-0.0830719
-0.0593396
-0.0433236
-0.0326014
-0.0273377
-0.0260914
-0.0267549
-0.19836
-0.201643
-0.207246
-0.215996
-0.222927
-0.223316
-0.217876
-0.206936
-0.186621
-0.164964
-0.143562
-0.125998
-0.110347
-0.0875406
-0.0725513
-0.0633099
-0.0582262
-0.0567615
-0.0575622
-0.0587961
-0.0651214
-0.0668859
-0.070954
-0.0791469
-0.0910954
-0.104271
-0.116956
-0.12631
-0.127296
-0.12478
-0.116747
-0.108454
-0.0993172
-0.0862575
-0.0781373
-0.0743109
-0.0732916
-0.074225
-0.0759661
-0.0773866
0.0192428
0.0180446
0.015204
0.00707717
-0.0080877
-0.0276699
-0.0475944
-0.0654987
-0.0774262
-0.087065
-0.0878497
-0.0869292
-0.0854452
-0.0789796
-0.0770227
-0.0775194
-0.0791776
-0.0815561
-0.0835766
-0.0849691
0.0600608
0.0593555
0.057267
0.0499395
0.0347739
0.0139769
-0.00770528
-0.0278958
-0.0431197
-0.0569681
-0.0620186
-0.0654553
-0.0696415
-0.0681158
-0.071043
-0.0746296
-0.0780265
-0.0810503
-0.083038
-0.0843005
0.0739442
0.0733924
0.071723
0.0656722
0.0526905
0.0340408
0.0134434
-0.00666955
-0.0224654
-0.0366852
-0.0426752
-0.0478872
-0.0541494
-0.0572234
-0.0626283
-0.0676649
-0.0718777
-0.0750955
-0.0769185
-0.0780064
0.0728729
0.0724764
0.0711815
0.0665444
0.0564803
0.0415309
0.0239257
0.00540801
-0.00991046
-0.0238717
-0.0297814
-0.0352027
-0.0416793
-0.047123
-0.0535198
-0.0588197
-0.0630246
-0.0660572
-0.0675731
-0.0684803
0.0649515
0.0646883
0.0637236
0.0603174
0.052907
0.0416948
0.0279048
0.0123166
-0.00134468
-0.0149254
-0.0210963
-0.0260921
-0.032015
-0.0378586
-0.0441981
-0.0492198
-0.0530664
-0.0557049
-0.0568414
-0.0575745
0.0546016
0.0544515
0.0537643
0.0513663
0.0460838
0.0379289
0.0276708
0.0155262
0.00463486
-0.0077984
-0.0142623
-0.0189721
-0.0241291
-0.0293191
-0.0350257
-0.0394959
-0.0428837
-0.0451554
-0.0460272
-0.0466147
0.0438923
0.0438219
0.0433438
0.0417385
0.0380842
0.0322972
0.0248523
0.0156858
0.00774861
-0.00258326
-0.00835777
-0.0125641
-0.017184
-0.0217018
-0.0266083
-0.0303894
-0.0332435
-0.0351394
-0.0357801
-0.0362436
0.0338783
0.0338482
0.0335225
0.0324819
0.0300116
0.0260227
0.0207315
0.013912
0.00839024
0.000449829
-0.00386683
-0.00725572
-0.0111647
-0.0150255
-0.0192223
-0.0223641
-0.0246605
-0.0261576
-0.0266676
-0.0270542
0.0248725
0.0248776
0.0246536
0.0240168
0.0223981
0.0197426
0.016134
0.0111699
0.00753301
0.00166737
-0.00115347
-0.00361276
-0.00664479
-0.00971516
-0.0131078
-0.0155323
-0.0172767
-0.0184069
-0.0187627
-0.0190692
0.0167999
0.0168081
0.0166667
0.0163217
0.015314
0.0136322
0.0113677
0.0078953
0.00572863
0.00160795
3.35188e-05
-0.00146845
-0.00357389
-0.00571529
-0.00824199
-0.0099438
-0.0111092
-0.0117985
-0.0120232
-0.0123155
0.00946025
0.00946676
0.0094275
0.0093129
0.00880889
0.00790383
0.0067753
0.00458939
0.00359264
0.000918855
0.000197918
-0.000590235
-0.00175688
-0.00290019
-0.00462755
-0.00558216
-0.00617492
-0.00649405
-0.00648449
-0.00670458
0.00303153
0.00303948
0.00306455
0.00311718
0.00304028
0.0027665
0.00252433
0.00151364
0.00139894
0.000190116
0.000117357
6.54866e-06
-0.000639795
-0.000863751
-0.00193242
-0.00247982
-0.00301576
-0.00339412
-0.00314777
-0.0031355
-1.07669
-0.241546
0.0283098
0.30268
0.481594
0.634346
0.755786
0.879922
1.01832
1.10354
-0.101387
0.302922
0.317118
0.503879
0.624764
0.733197
0.826073
0.90918
0.935882
0.894692
0.270931
0.482933
0.515775
0.651161
0.734805
0.81274
0.877084
0.925483
0.927187
0.941758
0.497262
0.638195
0.672467
0.772317
0.828601
0.884744
0.928851
0.960817
0.969698
0.993552
0.672702
0.772479
0.802116
0.868123
0.912395
0.952427
0.984128
1.00823
1.01788
1.0496
0.814253
0.88211
0.912217
0.954299
0.990001
1.01969
1.04371
1.06443
1.07842
1.10682
0.932295
0.982329
1.00769
1.03529
1.06261
1.08618
1.106
1.12523
1.14003
1.16662
1.03538
1.07211
1.09302
1.11348
1.13409
1.15335
1.17071
1.18881
1.20367
1.22735
1.12895
1.15792
1.17416
1.18934
1.20535
1.22137
1.23689
1.25379
1.26741
1.28974
1.21699
1.23739
1.25219
1.26531
1.27885
1.29259
1.30609
1.32068
1.33222
1.35186
1.30232
1.31808
1.33189
1.34369
1.35559
1.36723
1.37836
1.39003
1.39771
1.4145
1.38752
1.40005
1.41376
1.4255
1.43614
1.44593
1.45475
1.46301
1.46657
1.4778
1.47625
1.48708
1.50055
1.51007
1.51764
1.52493
1.53211
1.53857
1.53968
1.54703
1.57465
1.57926
1.58745
1.59218
1.59558
1.60005
1.60605
1.6137
1.61761
1.62748
1.68794
1.67482
1.66753
1.66182
1.6591
1.66044
1.66675
1.67912
1.69395
1.72362
1.8099
1.75386
1.72284
1.70564
1.69742
1.69735
1.70622
1.72584
1.75762
1.8269
)
;

boundaryField
{
    wall-4
    {
        type            zeroGradient;
    }
    pressure-outlet-7
    {
        type            fixedValue;
        value           uniform 0;
    }
    velocity-inlet-6
    {
        type            zeroGradient;
    }
    velocity-inlet-5
    {
        type            zeroGradient;
    }
    frontAndBackPlanes
    {
        type            empty;
    }
}


// ************************************************************************* //
