/*--------------------------------*- C++ -*----------------------------------*\
| =========                 |                                                 |
| \\      /  F ield         | OpenFOAM: The Open Source CFD Toolbox           |
|  \\    /   O peration     | Version:  v2012                                 |
|   \\  /    A nd           | Website:  www.openfoam.com                      |
|    \\/     M anipulation  |                                                 |
\*---------------------------------------------------------------------------*/
FoamFile
{
    version     2.0;
    format      ascii;
    class       volVectorField;
    location    "68";
    object      U;
}
// * * * * * * * * * * * * * * * * * * * * * * * * * * * * * * * * * * * * * //

dimensions      [0 1 -1 0 0 0 0];


internalField   nonuniform List<vector> 
2200
(
(0.878834 -0.030412 0)
(1.00578 -0.0512799 0)
(1.00327 -0.0354003 0)
(1.00025 -0.0244395 0)
(0.999872 -0.0166635 0)
(1.00004 -0.0107316 0)
(1.00004 -0.00683769 0)
(0.999998 -0.00418503 0)
(0.999909 -0.00219827 0)
(1.00018 -0.000657112 0)
(1.00007 0.00113481 0)
(1.00038 0.00266403 0)
(1.00038 0.00452725 0)
(1.00028 0.00711276 0)
(1.0001 0.0108356 0)
(1.00002 0.0166594 0)
(1.00034 0.0243741 0)
(1.00347 0.0348614 0)
(1.00599 0.0513823 0)
(0.879051 0.0302945 0)
(0.712028 -0.0327597 0)
(0.996645 -0.063003 0)
(1.03332 -0.0561337 0)
(1.02492 -0.0464015 0)
(1.01589 -0.0360927 0)
(1.00965 -0.026354 0)
(1.00591 -0.0181145 0)
(1.00378 -0.0114227 0)
(1.00266 -0.0060323 0)
(1.00223 -0.00158579 0)
(1.00201 0.00249041 0)
(1.00209 0.00700123 0)
(1.00323 0.0123809 0)
(1.00548 0.0189525 0)
(1.00941 0.0272538 0)
(1.01552 0.0369964 0)
(1.02461 0.0474853 0)
(1.03315 0.0580023 0)
(0.996702 0.0631474 0)
(0.71178 0.0330376 0)
(0.535584 -0.0238914 0)
(0.969934 -0.056921 0)
(1.05644 -0.0547167 0)
(1.05224 -0.0487249 0)
(1.03625 -0.0403824 0)
(1.02447 -0.0322099 0)
(1.01592 -0.0239301 0)
(1.01038 -0.0160182 0)
(1.00708 -0.00871162 0)
(1.00538 -0.00197639 0)
(1.00557 0.00441893 0)
(1.00734 0.0108787 0)
(1.01049 0.0177693 0)
(1.01574 0.0254895 0)
(1.02404 0.033448 0)
(1.03607 0.0414104 0)
(1.05216 0.0494077 0)
(1.0563 0.0533076 0)
(0.969193 0.0576489 0)
(0.534352 0.0239438 0)
(0.392397 -0.0136425 0)
(0.911895 -0.0463776 0)
(1.05755 -0.0468553 0)
(1.06963 -0.0442804 0)
(1.05492 -0.0381278 0)
(1.03935 -0.0314392 0)
(1.02758 -0.0246331 0)
(1.01916 -0.0174322 0)
(1.01391 -0.00994258 0)
(1.01141 -0.00246215 0)
(1.01107 0.00509948 0)
(1.01297 0.0124919 0)
(1.01807 0.0198947 0)
(1.02657 0.0266806 0)
(1.03849 0.0331231 0)
(1.05399 0.0395805 0)
(1.06823 0.0456549 0)
(1.05547 0.0482875 0)
(0.909901 0.0469986 0)
(0.389897 0.0137776 0)
(0.307814 -0.00451003 0)
(0.84683 -0.0323611 0)
(1.04944 -0.0398944 0)
(1.0795 -0.038124 0)
(1.06827 -0.0334501 0)
(1.05177 -0.0278281 0)
(1.03834 -0.0224225 0)
(1.02803 -0.0163133 0)
(1.02082 -0.00936139 0)
(1.01677 -0.00162743 0)
(1.01668 0.00614692 0)
(1.02064 0.0135189 0)
(1.02754 0.0197991 0)
(1.03731 0.0255182 0)
(1.0502 0.030436 0)
(1.06664 0.0357657 0)
(1.07765 0.0401241 0)
(1.04719 0.0417914 0)
(0.842876 0.0330046 0)
(0.303658 0.00474364 0)
(0.264447 0.000104939 0)
(0.789226 -0.0200516 0)
(1.03359 -0.0314228 0)
(1.08373 -0.0319892 0)
(1.0774 -0.0287052 0)
(1.0609 -0.0238153 0)
(1.04733 -0.0193144 0)
(1.03658 -0.0142446 0)
(1.02889 -0.00821765 0)
(1.02453 -0.00131145 0)
(1.02401 0.00618921 0)
(1.02719 0.0128673 0)
(1.0343 0.0187289 0)
(1.04495 0.023214 0)
(1.0586 0.027158 0)
(1.07486 0.0315433 0)
(1.08031 0.0342632 0)
(1.02916 0.0333702 0)
(0.782502 0.0207559 0)
(0.258625 0.00012515 0)
(0.240524 0.00107056 0)
(0.738593 -0.0122652 0)
(1.01381 -0.0249466 0)
(1.0841 -0.0266931 0)
(1.08311 -0.0243828 0)
(1.0679 -0.0202109 0)
(1.05427 -0.0162137 0)
(1.04325 -0.0116183 0)
(1.03487 -0.00612503 0)
(1.02975 0.00038873 0)
(1.02937 0.00697642 0)
(1.03395 0.0129107 0)
(1.04165 0.0173904 0)
(1.05177 0.0213942 0)
(1.06469 0.024768 0)
(1.07939 0.0282118 0)
(1.07985 0.0297787 0)
(1.00744 0.0272863 0)
(0.728689 0.0131626 0)
(0.232931 -0.000832231 0)
(0.226279 0.000964771 0)
(0.695911 -0.00800821 0)
(0.993463 -0.0206756 0)
(1.08252 -0.0230189 0)
(1.08703 -0.0211487 0)
(1.0735 -0.0175832 0)
(1.06011 -0.0137222 0)
(1.04966 -0.00946397 0)
(1.04188 -0.00456867 0)
(1.03706 0.00100451 0)
(1.03612 0.00708094 0)
(1.03902 0.0123862 0)
(1.04564 0.0168644 0)
(1.05573 0.0201884 0)
(1.06915 0.0231747 0)
(1.08187 0.0259032 0)
(1.07551 0.0268735 0)
(0.983104 0.0235179 0)
(0.681516 0.00915903 0)
(0.216443 -0.000704904 0)
(0.216725 0.000626349 0)
(0.660499 -0.00564104 0)
(0.972826 -0.0175516 0)
(1.07967 -0.0201114 0)
(1.09042 -0.0185041 0)
(1.07841 -0.015299 0)
(1.06494 -0.0116176 0)
(1.05426 -0.0073336 0)
(1.04604 -0.00242135 0)
(1.04071 0.00306813 0)
(1.03998 0.00841417 0)
(1.04386 0.0129769 0)
(1.05078 0.0165408 0)
(1.06009 0.0198305 0)
(1.0725 0.0225319 0)
(1.08333 0.024697 0)
(1.07083 0.0251059 0)
(0.959029 0.0210942 0)
(0.641334 0.00709909 0)
(0.204292 -0.000330427 0)
(0.209662 0.000304685 0)
(0.632237 -0.00417305 0)
(0.954288 -0.0149053 0)
(1.07683 -0.0177853 0)
(1.09366 -0.0164355 0)
(1.08316 -0.0135107 0)
(1.06974 -0.00987089 0)
(1.05937 -0.00581227 0)
(1.05182 -0.00114099 0)
(1.04697 0.00383627 0)
(1.04532 0.00895687 0)
(1.04733 0.0135332 0)
(1.05305 0.0173572 0)
(1.06244 0.0200561 0)
(1.07547 0.0223968 0)
(1.08427 0.0240614 0)
(1.06361 0.0240123 0)
(0.934022 0.0192424 0)
(0.606197 0.00597641 0)
(0.193757 4.91e-05 0)
(0.203853 9.04613e-05 0)
(0.608947 -0.00311497 0)
(0.936302 -0.0124765 0)
(1.07363 -0.0154469 0)
(1.09696 -0.0142405 0)
(1.08788 -0.0113885 0)
(1.07438 -0.00779281 0)
(1.06353 -0.00363826 0)
(1.05509 0.00111532 0)
(1.04943 0.00629885 0)
(1.04803 0.0111327 0)
(1.05099 0.0150723 0)
(1.05708 0.018031 0)
(1.06595 0.020706 0)
(1.07779 0.0227601 0)
(1.0845 0.0239656 0)
(1.05687 0.023214 0)
(0.910138 0.0177296 0)
(0.57578 0.005332 0)
(0.18405 0.000330602 0)
(0.199425 1.58885e-05 0)
(0.591066 -0.0022428 0)
(0.921221 -0.0101246 0)
(1.07097 -0.0132681 0)
(1.10051 -0.0121897 0)
(1.09286 -0.00948287 0)
(1.07919 -0.00590463 0)
(1.06826 -0.00199551 0)
(1.06014 0.00253871 0)
(1.0548 0.00746302 0)
(1.05225 0.0123484 0)
(1.05335 0.0164473 0)
(1.05848 0.0196465 0)
(1.06746 0.0215912 0)
(1.08003 0.0232679 0)
(1.08418 0.024078 0)
(1.04746 0.022745 0)
(0.88521 0.0165654 0)
(0.547839 0.00496987 0)
(0.174464 0.000501895 0)
(0.195897 3.72384e-05 0)
(0.576445 -0.00151486 0)
(0.906748 -0.00798226 0)
(1.06812 -0.0108429 0)
(1.10401 -0.00967988 0)
(1.09784 -0.00683598 0)
(1.0842 -0.00317245 0)
(1.07283 0.000957425 0)
(1.06379 0.00573285 0)
(1.05708 0.0107687 0)
(1.05457 0.0151634 0)
(1.05663 0.0186296 0)
(1.06206 0.0209026 0)
(1.07059 0.0229007 0)
(1.08135 0.0241922 0)
(1.08333 0.0245914 0)
(1.03832 0.0226444 0)
(0.861031 0.0157538 0)
(0.52242 0.00482336 0)
(0.165163 0.000590393 0)
(0.193937 7.1323e-05 0)
(0.566232 -0.000713835 0)
(0.895805 -0.00578276 0)
(1.06619 -0.00847162 0)
(1.10793 -0.00717411 0)
(1.1032 -0.00428512 0)
(1.08937 -0.000515117 0)
(1.07759 0.00341025 0)
(1.06828 0.00780109 0)
(1.0617 0.0126168 0)
(1.05801 0.0175045 0)
(1.0582 0.0209844 0)
(1.06265 0.0233522 0)
(1.07146 0.024499 0)
(1.08254 0.0254392 0)
(1.0812 0.0253564 0)
(1.02609 0.0228482 0)
(0.835254 0.0152897 0)
(0.497596 0.00477709 0)
(0.155715 0.000625718 0)
(0.193156 0.000105226 0)
(0.558859 -0.000188541 0)
(0.885687 -0.00377788 0)
(1.06456 -0.00591791 0)
(1.11198 -0.00438283 0)
(1.1087 -0.00123676 0)
(1.09495 0.00269683 0)
(1.08278 0.00712772 0)
(1.07279 0.0121627 0)
(1.06495 0.0174616 0)
(1.06068 0.0213927 0)
(1.06123 0.0241693 0)
(1.06594 0.0257817 0)
(1.07398 0.0270204 0)
(1.08235 0.0273673 0)
(1.07858 0.0267972 0)
(1.01387 0.0235545 0)
(0.809723 0.0151978 0)
(0.473892 0.00485435 0)
(0.146389 0.00065111 0)
(0.193824 8.18091e-05 0)
(0.554914 0.000909467 0)
(0.879661 -0.00144459 0)
(1.06423 -0.00300045 0)
(1.11657 -0.00106305 0)
(1.11453 0.00232757 0)
(1.10057 0.00662056 0)
(1.08786 0.0110573 0)
(1.07711 0.0157436 0)
(1.0683 0.0203026 0)
(1.06296 0.0247308 0)
(1.06208 0.0277966 0)
(1.06532 0.0291864 0)
(1.07357 0.0295595 0)
(1.08224 0.0297553 0)
(1.07371 0.0286034 0)
(0.99809 0.0245313 0)
(0.782058 0.0154241 0)
(0.449565 0.0050102 0)
(0.136668 0.000665883 0)
(0.196068 0.000296884 0)
(0.555357 0.0015741 0)
(0.875298 0.000859534 0)
(1.06518 0.000175707 0)
(1.12186 0.00247633 0)
(1.12106 0.00617828 0)
(1.10709 0.0106532 0)
(1.09384 0.0156519 0)
(1.08242 0.0211902 0)
(1.07306 0.0269501 0)
(1.06676 0.0308851 0)
(1.06491 0.0326233 0)
(1.0681 0.0335592 0)
(1.07512 0.034079 0)
(1.08028 0.0331242 0)
(1.06824 0.0312982 0)
(0.981985 0.0262313 0)
(0.753828 0.0160751 0)
(0.425134 0.00532543 0)
(0.126723 0.000697405 0)
(0.20042 0.000681056 0)
(0.558283 0.00242245 0)
(0.875972 0.00352431 0)
(1.06792 0.00366104 0)
(1.12794 0.00673294 0)
(1.12803 0.0109123 0)
(1.11364 0.0161583 0)
(1.09981 0.0215857 0)
(1.08743 0.027094 0)
(1.0759 0.0317809 0)
(1.06765 0.0355624 0)
(1.06481 0.0377547 0)
(1.0665 0.0383945 0)
(1.0731 0.0376478 0)
(1.07861 0.0370858 0)
(1.06025 0.0344469 0)
(0.961495 0.0281464 0)
(0.722561 0.0170499 0)
(0.39893 0.00569984 0)
(0.116004 0.000714592 0)
(0.207105 0.000894114 0)
(0.565658 0.00358621 0)
(0.880212 0.00596008 0)
(1.07305 0.0078799 0)
(1.13512 0.0115082 0)
(1.13619 0.0163343 0)
(1.12141 0.0219417 0)
(1.10646 0.0279393 0)
(1.09265 0.0341607 0)
(1.0804 0.0402671 0)
(1.07154 0.044538 0)
(1.06699 0.0455566 0)
(1.0678 0.0453083 0)
(1.0735 0.0445136 0)
(1.07426 0.0423474 0)
(1.05088 0.0386698 0)
(0.939931 0.0311209 0)
(0.68954 0.0184835 0)
(0.371374 0.00621662 0)
(0.104689 0.000746196 0)
(0.215566 0.00105923 0)
(0.576632 0.00484002 0)
(0.888327 0.0091027 0)
(1.08087 0.0123785 0)
(1.14387 0.0171715 0)
(1.14536 0.0228341 0)
(1.12965 0.0295695 0)
(1.11376 0.0363645 0)
(1.09893 0.0431955 0)
(1.08443 0.0487797 0)
(1.07168 0.0515139 0)
(1.06595 0.0524956 0)
(1.06527 0.0521798 0)
(1.06915 0.0502193 0)
(1.0707 0.0484346 0)
(1.03854 0.0436104 0)
(0.912549 0.0341774 0)
(0.651893 0.0201616 0)
(0.34086 0.00672811 0)
(0.092309 0.000756544 0)
(0.228332 0.00143226 0)
(0.595939 0.00682159 0)
(0.904244 0.0136471 0)
(1.09224 0.0189135 0)
(1.15428 0.024397 0)
(1.15603 0.0309525 0)
(1.13931 0.0383499 0)
(1.12165 0.04596 0)
(1.10412 0.0532293 0)
(1.08702 0.0594456 0)
(1.07408 0.0635976 0)
(1.06674 0.063957 0)
(1.06505 0.0621828 0)
(1.06853 0.0597447 0)
(1.06293 0.0560354 0)
(1.0234 0.0495404 0)
(0.883108 0.0384929 0)
(0.611336 0.0222303 0)
(0.308122 0.00728154 0)
(0.0792339 0.000761836 0)
(0.244035 0.00198997 0)
(0.619106 0.00858698 0)
(0.925104 0.0179754 0)
(1.10781 0.0255291 0)
(1.16711 0.0330921 0)
(1.1684 0.0408873 0)
(1.14992 0.0497679 0)
(1.13039 0.0583936 0)
(1.11117 0.0667213 0)
(1.09207 0.0730345 0)
(1.0747 0.0754092 0)
(1.06445 0.0740691 0)
(1.0609 0.0721706 0)
(1.06105 0.0687379 0)
(1.05626 0.0644275 0)
(1.00462 0.0567794 0)
(0.845626 0.0427272 0)
(0.563709 0.0243218 0)
(0.271403 0.00771605 0)
(0.0650791 0.000744477 0)
(0.266358 0.00282199 0)
(0.652566 0.0124522 0)
(0.954339 0.0250157 0)
(1.128 0.0353617 0)
(1.18273 0.0439219 0)
(1.18277 0.0538032 0)
(1.16196 0.0639136 0)
(1.13962 0.0736094 0)
(1.11657 0.0819577 0)
(1.09312 0.087615 0)
(1.0736 0.0894288 0)
(1.06292 0.0884678 0)
(1.05876 0.085163 0)
(1.05883 0.0808534 0)
(1.04378 0.074866 0)
(0.980829 0.0644355 0)
(0.804386 0.0481744 0)
(0.512403 0.0265697 0)
(0.232544 0.00801841 0)
(0.0506275 0.000720083 0)
(0.297938 0.00377397 0)
(0.698512 0.0156028 0)
(0.994052 0.0332977 0)
(1.15484 0.0472005 0)
(1.20192 0.0588957 0)
(1.19939 0.070813 0)
(1.17492 0.0825667 0)
(1.14913 0.09295 0)
(1.12299 0.101529 0)
(1.09698 0.106785 0)
(1.07457 0.107671 0)
(1.05984 0.103968 0)
(1.05226 0.0989627 0)
(1.04789 0.0929223 0)
(1.03185 0.085646 0)
(0.952387 0.0735574 0)
(0.752337 0.0529161 0)
(0.45103 0.0281475 0)
(0.18945 0.00791866 0)
(0.0355014 0.000614235 0)
(0.334644 0.0071348 0)
(0.756523 0.0249382 0)
(1.04318 0.0467464 0)
(1.18764 0.0650835 0)
(1.22535 0.0782441 0)
(1.21849 0.0933323 0)
(1.18938 0.10607 0)
(1.15941 0.116616 0)
(1.12865 0.12425 0)
(1.09758 0.127712 0)
(1.07079 0.125849 0)
(1.05484 0.120671 0)
(1.04799 0.114975 0)
(1.04313 0.108322 0)
(1.01298 0.0988833 0)
(0.915471 0.0824403 0)
(0.694052 0.0585053 0)
(0.387328 0.0297115 0)
(0.146621 0.00763181 0)
(0.0218956 0.000571668 0)
(0.415222 0.0108216 0)
(0.844723 0.0357611 0)
(1.11054 0.0678746 0)
(1.22859 0.0906764 0)
(1.2527 0.107025 6.12618e-34)
(1.23859 0.124068 -2.76975e-34)
(1.20282 0.136909 0)
(1.16759 0.146387 0)
(1.13219 0.152263 0)
(1.09744 0.153197 0)
(1.06852 0.149025 0)
(1.05031 0.141817 0)
(1.03912 0.133117 0)
(1.02749 0.123374 0)
(0.99212 0.111455 0)
(0.872016 0.0920522 0)
(0.621837 0.061955 0)
(0.309097 0.0288744 0)
(0.09774 0.00698302 0)
(0.00716262 0.000737971 0)
(0.486784 0.0260208 4.45168e-20)
(0.947149 0.0604691 -3.37553e-20)
(1.18087 0.102459 0)
(1.27025 0.12987 2.63545e-20)
(1.28161 0.145873 -2.13714e-20)
(1.25815 0.164631 2.92237e-34)
(1.21555 0.175409 0)
(1.17541 0.182611 1.56431e-20)
(1.13508 0.185668 -5.14101e-20)
(1.0953 0.183566 1.05148e-20)
(1.06188 0.17636 0)
(1.0399 0.165565 -2.67954e-20)
(1.0291 0.155618 -3.22839e-20)
(1.01594 0.145552 5.65658e-20)
(0.95598 0.129605 -4.46762e-20)
(0.800379 0.101547 0)
(0.518043 0.0640924 -1.60502e-20)
(0.217845 0.0267136 0)
(0.0489817 0.00659462 -8.87657e-20)
(-0.00859933 0.000326767 1.04613e-19)
(0.523238 0.054115 -5.89253e-21)
(1.01366 0.10275 9.90441e-20)
(1.23357 0.153474 -4.99073e-21)
(1.30519 0.177898 -6.36911e-20)
(1.30725 0.195368 -4.50868e-20)
(1.27474 0.212429 7.33513e-20)
(1.22563 0.220538 0)
(1.17965 0.22511 0)
(1.13366 0.225874 8.15952e-20)
(1.08899 0.220846 0)
(1.05145 0.209538 9.63606e-20)
(1.02901 0.197323 2.8752e-20)
(1.01243 0.185718 5.79954e-22)
(0.984069 0.170267 -6.12473e-20)
(0.911773 0.148745 0)
(0.730016 0.114367 0)
(0.433861 0.0657761 -2.60909e-19)
(0.15712 0.0240787 6.56119e-19)
(0.0159821 0.00443636 -3.87815e-19)
(-0.0201499 -0.00151946 -4.56727e-19)
(0.530244 0.0775481 -5.25536e-20)
(1.04786 0.160038 2.05935e-20)
(1.26855 0.213665 1.16547e-20)
(1.33182 0.237202 1.10589e-19)
(1.3269 0.253743 1.46491e-20)
(1.28709 0.266086 -1.9058e-19)
(1.23251 0.269952 6.52183e-20)
(1.18147 0.27107 0)
(1.13016 0.267885 -1.72123e-19)
(1.08006 0.258687 1.53443e-19)
(1.03905 0.245145 -2.59965e-19)
(1.0113 0.231126 1.21901e-19)
(0.99269 0.215365 -7.90614e-20)
(0.966268 0.19886 1.78359e-19)
(0.875929 0.173024 0)
(0.678254 0.126753 -6.48673e-20)
(0.382017 0.0685784 0)
(0.132168 0.0233206 3.57146e-19)
(0.00241319 0.00218311 -8.46063e-19)
(-0.0256584 -0.00352961 5.2954e-19)
(0.527672 0.108468 1.34385e-19)
(1.0735 0.218972 -6.00701e-20)
(1.29313 0.280132 -1.32253e-20)
(1.34992 0.302407 0)
(1.33989 0.315874 -8.20807e-20)
(1.29489 0.323136 1.01445e-19)
(1.23552 0.322489 -6.95912e-20)
(1.17942 0.319327 0)
(1.12336 0.312101 1.22207e-19)
(1.0693 0.299113 -1.07737e-19)
(1.02452 0.28148 2.24605e-19)
(0.994767 0.26248 0)
(0.972326 0.245388 -1.67868e-19)
(0.932825 0.224515 9.46479e-20)
(0.84206 0.190659 2.37821e-19)
(0.642186 0.139789 -2.09211e-19)
(0.358913 0.0748627 3.30022e-19)
(0.126383 0.025152 -7.30163e-19)
(-0.00213088 0.000513744 4.61732e-19)
(-0.0289072 -0.00575499 -5.7748e-19)
(0.512907 0.132621 -3.84765e-20)
(1.07526 0.270525 2.7127e-20)
(1.30179 0.344332 -4.42096e-20)
(1.35878 0.367926 9.18395e-20)
(1.34563 0.380222 -8.88736e-20)
(1.29701 0.382213 3.15731e-20)
(1.23428 0.37635 3.80337e-21)
(1.17461 0.368638 -1.36841e-19)
(1.11437 0.356866 -1.27646e-19)
(1.05528 0.338975 -2.30737e-19)
(1.00643 0.317258 -4.82669e-19)
(0.973424 0.29589 -1.48952e-19)
(0.948924 0.274855 2.23321e-21)
(0.914871 0.252338 -3.23494e-19)
(0.816565 0.217086 -4.9536e-21)
(0.619276 0.155005 3.04075e-19)
(0.352478 0.0834383 -9.11249e-20)
(0.129235 0.0294365 -5.28155e-20)
(0.00196115 -0.000524426 0)
(-0.02841 -0.00715117 1.22666e-18)
(0.498175 0.154395 0)
(1.07491 0.323033 5.61091e-22)
(1.30608 0.409605 0)
(1.36145 0.432662 -1.2991e-20)
(1.34587 0.442676 8.44955e-20)
(1.29504 0.440238 -7.43834e-20)
(1.22947 0.430353 7.55962e-20)
(1.16621 0.418403 2.249e-19)
(1.10245 0.402229 -7.09894e-20)
(1.04116 0.380296 1.13929e-19)
(0.990065 0.354563 2.59304e-19)
(0.954177 0.328897 3.24772e-19)
(0.926443 0.306224 -1.95622e-19)
(0.882155 0.279983 3.50216e-19)
(0.788537 0.237005 -2.77527e-19)
(0.599128 0.174037 0)
(0.347809 0.0961846 -6.91926e-19)
(0.13754 0.0359988 9.31471e-19)
(0.0110849 0.00143641 6.95025e-20)
(-0.0248098 -0.00761076 -1.29695e-18)
(0.480173 0.173343 -5.16859e-21)
(1.06119 0.368121 -2.66422e-20)
(1.30096 0.468514 3.54635e-20)
(1.35851 0.494238 -6.45935e-20)
(1.34112 0.504238 7.16392e-20)
(1.28832 0.497757 -7.12146e-20)
(1.22079 0.483483 1.48746e-19)
(1.15558 0.467147 -6.67273e-20)
(1.08944 0.44652 -2.86056e-19)
(1.02423 0.41993 -2.02568e-22)
(0.968166 0.389513 -2.82062e-19)
(0.928804 0.360882 -3.49726e-19)
(0.901278 0.335285 2.16345e-19)
(0.863889 0.307521 -1.25913e-19)
(0.766087 0.265461 3.02138e-19)
(0.584109 0.191995 0)
(0.347416 0.110599 -4.30284e-19)
(0.146933 0.0443018 6.35531e-19)
(0.0212077 0.00497411 1.20168e-18)
(-0.0202777 -0.00734476 -1.41333e-18)
(0.467596 0.192004 -1.07232e-19)
(1.05273 0.415554 4.84347e-20)
(1.29513 0.528079 -2.06298e-20)
(1.35198 0.554074 6.60227e-20)
(1.333 0.562459 1.22352e-20)
(1.27921 0.552373 -1.38451e-19)
(1.21016 0.534813 -8.67982e-20)
(1.14272 0.514843 -8.63493e-20)
(1.07385 0.490406 -1.62142e-19)
(1.00597 0.459947 2.60727e-19)
(0.947848 0.425654 2.84578e-19)
(0.90781 0.393702 5.54881e-19)
(0.87714 0.366421 0)
(0.830867 0.3358 6.42499e-21)
(0.740778 0.284742 -8.31216e-19)
(0.568691 0.212462 1.9539e-19)
(0.346206 0.125119 9.34664e-19)
(0.155684 0.05388 -2.75831e-19)
(0.0316287 0.00973303 5.71915e-19)
(-0.0151702 -0.00631421 -4.7657e-20)
(0.4542 0.208129 5.87682e-21)
(1.03584 0.455069 6.6298e-20)
(1.28391 0.581119 -1.87883e-21)
(1.3424 0.610081 5.96611e-20)
(1.32218 0.618712 -1.2948e-19)
(1.26712 0.605451 1.36427e-19)
(1.19673 0.584384 8.97519e-20)
(1.12786 0.560724 2.57062e-19)
(1.05679 0.532631 3.24284e-19)
(0.985745 0.498035 -3.02686e-19)
(0.924517 0.459525 0)
(0.881816 0.424338 -2.10541e-19)
(0.850434 0.393979 2.41726e-19)
(0.812038 0.361769 3.0551e-19)
(0.719544 0.313442 -1.76893e-19)
(0.554655 0.23059 -4.29264e-19)
(0.34469 0.140504 -1.27782e-19)
(0.162881 0.0639941 -2.04298e-21)
(0.0407899 0.0152091 0)
(-0.010344 -0.00487087 0)
(0.446524 0.22527 -9.1446e-20)
(1.02566 0.49741 0)
(1.27342 0.634618 1.38116e-20)
(1.33081 0.664399 -1.86601e-20)
(1.30943 0.671535 1.49872e-19)
(1.25382 0.655279 -3.74868e-20)
(1.18241 0.631603 9.12429e-20)
(1.11183 0.60507 -1.73541e-19)
(1.03894 0.573864 2.46035e-19)
(0.966819 0.535894 -1.00485e-19)
(0.904028 0.493465 1.63451e-19)
(0.859864 0.456079 6.68756e-19)
(0.826821 0.423821 1.42906e-20)
(0.779584 0.387927 -3.19164e-19)
(0.695037 0.330356 5.90639e-19)
(0.538679 0.250913 3.29632e-21)
(0.340637 0.154738 1.3671e-19)
(0.1674 0.0742098 -6.51603e-19)
(0.0477953 0.0205919 6.71377e-19)
(-0.00627578 -0.00333842 -7.90755e-19)
(0.438323 0.24055 2.53339e-23)
(1.0104 0.532657 0)
(1.25963 0.68161 0)
(1.31769 0.714689 4.33239e-21)
(1.29549 0.72201 -4.2574e-20)
(1.23889 0.703253 6.26978e-20)
(1.16647 0.676822 -1.67896e-19)
(1.09518 0.647288 0)
(1.02104 0.613048 -3.63264e-19)
(0.945908 0.571573 4.39135e-19)
(0.879519 0.525758 4.68275e-19)
(0.833091 0.485023 -2.45584e-19)
(0.79987 0.448036 -2.97992e-19)
(0.761222 0.410598 6.9911e-19)
(0.673563 0.357264 -2.10201e-19)
(0.52263 0.266703 -2.50225e-19)
(0.334903 0.168434 -1.49523e-19)
(0.168861 0.08319 -7.04597e-19)
(0.0523902 0.0253262 1.03283e-19)
(-0.00310244 -0.00191852 8.56759e-19)
(0.432932 0.257741 -4.36992e-20)
(1.00044 0.570529 -5.92249e-20)
(1.24715 0.729065 2.38511e-20)
(1.30357 0.763353 -2.0473e-22)
(1.2805 0.769315 -4.96371e-20)
(1.22364 0.748115 9.7393e-20)
(1.15078 0.719544 0)
(1.07847 0.687724 1.05595e-19)
(1.00265 0.651202 -8.32621e-20)
(0.925903 0.607089 7.33918e-19)
(0.858383 0.557795 -1.0545e-19)
(0.810953 0.513557 1.21755e-19)
(0.77638 0.475814 0)
(0.728817 0.434103 -3.78748e-19)
(0.648688 0.369831 4.58958e-19)
(0.504881 0.284165 0)
(0.326149 0.179426 -3.21873e-19)
(0.167591 0.0909241 9.47579e-19)
(0.0546078 0.029156 1.12643e-19)
(-0.000864513 -0.000762885 -1.05688e-18)
(0.428734 0.275007 -1.07859e-19)
(0.987425 0.602392 1.36514e-19)
(1.23249 0.770368 0)
(1.28896 0.807881 2.93512e-20)
(1.26542 0.814079 0)
(1.20787 0.790933 -1.30001e-19)
(1.13436 0.760209 0)
(1.06149 0.726087 0)
(0.984473 0.687193 -1.11479e-19)
(0.905182 0.640232 -6.97952e-19)
(0.834506 0.588226 -8.66445e-19)
(0.784101 0.540815 1.42946e-19)
(0.748161 0.497021 5.1676e-19)
(0.710123 0.45269 4.17703e-19)
(0.626532 0.393318 -1.47348e-18)
(0.487529 0.295207 -5.88259e-19)
(0.316522 0.189574 3.45032e-19)
(0.164277 0.0966265 0)
(0.0548801 0.0319776 9.68776e-19)
(0.00052618 5.08702e-05 -1.14014e-18)
(0.426641 0.290591 1.26834e-19)
(0.978945 0.636612 -1.57072e-19)
(1.2195 0.812423 0)
(1.2741 0.850934 -1.14235e-20)
(1.24987 0.855986 -6.19744e-21)
(1.19221 0.830938 0)
(1.11851 0.79852 5.20807e-20)
(1.0448 0.762559 7.41244e-20)
(0.966258 0.722049 -2.08907e-19)
(0.885304 0.673307 9.22337e-20)
(0.812686 0.618438 0)
(0.761295 0.566989 5.9286e-19)
(0.724592 0.522286 6.26461e-21)
(0.677047 0.473104 2.2553e-19)
(0.601558 0.399894 2.67306e-19)
(0.468711 0.308056 0)
(0.305263 0.196298 -5.61601e-19)
(0.158988 0.101054 1.10142e-18)
(0.053867 0.0335626 -1.17075e-18)
(0.00105891 0.000582531 2.45671e-18)
(0.42475 0.305376 0)
(0.967559 0.665071 0)
(1.20518 0.848533 -7.78501e-20)
(1.25942 0.889955 0)
(1.23482 0.895351 0)
(1.17661 0.868827 -1.02933e-19)
(1.10239 0.83476 5.32652e-20)
(1.02819 0.797119 1.79214e-20)
(0.94858 0.754813 -4.74791e-20)
(0.865289 0.703978 0)
(0.789632 0.64697 -1.32654e-19)
(0.734447 0.592808 -4.83669e-19)
(0.694717 0.540963 -5.83217e-19)
(0.657336 0.486578 -2.34728e-19)
(0.578834 0.419042 2.89531e-19)
(0.450707 0.312271 -6.81828e-19)
(0.295135 0.201277 1.20766e-18)
(0.153483 0.102803 1.49476e-21)
(0.052187 0.0349364 -1.11818e-18)
(0.00150761 0.00144698 -1.65729e-19)
(0.423557 0.319349 0)
(0.95998 0.695993 -1.26556e-19)
(1.19273 0.885637 9.40524e-20)
(1.24485 0.927806 0)
(1.21957 0.932232 0)
(1.16126 0.904255 2.04156e-19)
(1.08701 0.868908 0)
(1.01221 0.82981 0)
(0.931335 0.786453 -4.59555e-19)
(0.846374 0.734577 1.28788e-19)
(0.767957 0.675492 -1.17669e-18)
(0.710882 0.61704 0)
(0.6706 0.564054 -6.3575e-19)
(0.622373 0.503719 9.90637e-21)
(0.552634 0.417732 -9.33064e-19)
(0.432223 0.31777 3.66558e-19)
(0.28547 0.200475 1.20729e-21)
(0.151859 0.101588 -1.26473e-18)
(0.0519585 0.0329411 6.01245e-19)
(-0.000278189 -0.00116918 1.77258e-19)
(0.422116 0.333112 0)
(0.949978 0.721691 -1.70532e-19)
(1.17934 0.917105 9.89004e-20)
(1.23074 0.961851 1.40446e-19)
(1.20511 0.966675 -4.79586e-21)
(1.14637 0.937572 2.01732e-20)
(1.07179 0.900996 -2.96967e-20)
(0.996709 0.860795 4.32795e-19)
(0.914884 0.81617 4.91593e-19)
(0.827599 0.762923 9.79849e-19)
(0.745912 0.702615 9.77636e-19)
(0.684235 0.642378 1.72399e-19)
(0.638352 0.581075 9.14234e-19)
(0.60013 0.512051 5.65335e-19)
(0.527338 0.430908 6.69469e-19)
(0.414097 0.311143 -4.00941e-19)
(0.27654 0.193455 -4.60371e-19)
(0.154622 0.0999242 5.4563e-19)
(0.0613625 0.0429002 -3.2324e-19)
(0.0080588 0.00952905 5.74844e-19)
(0.421121 0.346375 2.37528e-19)
(0.943384 0.749841 2.67423e-19)
(1.16776 0.949959 5.64983e-20)
(1.21691 0.995088 1.54014e-20)
(1.19064 0.999002 -1.8939e-20)
(1.13188 0.968789 -5.62028e-20)
(1.05746 0.931312 2.82841e-20)
(0.98198 0.89 -1.89702e-20)
(0.899019 0.844747 -5.73298e-19)
(0.810121 0.791148 -1.06393e-18)
(0.725349 0.729527 6.7878e-20)
(0.660452 0.665265 0)
(0.613516 0.602974 0)
(0.561127 0.527727 -2.95278e-19)
(0.495959 0.420123 -1.09887e-18)
(0.393834 0.304215 8.63797e-19)
(0.276373 0.175774 5.05023e-19)
(0.168462 0.0777808 0)
(0.0793268 0.0115952 1.03447e-18)
(0.00180982 -0.0182001 -6.12186e-19)
(0.419877 0.359286 -1.26092e-19)
(0.934614 0.772912 1.11051e-19)
(1.15535 0.977403 -1.34678e-19)
(1.20368 1.02474 -1.14255e-19)
(1.17716 1.02905 -2.24524e-20)
(1.11812 0.997958 -1.79565e-20)
(1.04355 0.959581 0)
(0.967893 0.917644 -5.44529e-19)
(0.884047 0.871549 6.90912e-20)
(0.792961 0.817159 0)
(0.70489 0.755421 0)
(0.63454 0.691239 1.10747e-19)
(0.578646 0.620248 1.48877e-19)
(0.534174 0.532746 -3.19627e-19)
(0.463661 0.429348 7.88414e-19)
(0.367321 0.282185 -9.41819e-19)
(0.262225 0.15022 -1.08468e-18)
(0.193285 0.0680411 9.61276e-19)
(0.150506 0.0668633 -3.67619e-19)
(0.109456 0.0742035 2.13853e-19)
(0.419019 0.371348 1.55944e-19)
(0.928816 0.798288 0)
(1.14467 1.00656 0)
(1.19083 1.05392 -3.22147e-20)
(1.16377 1.05732 2.60787e-20)
(1.10481 1.02536 -1.97127e-20)
(1.03051 0.986388 1.30571e-19)
(0.95454 0.94361 5.56937e-19)
(0.869701 0.897201 1.0413e-18)
(0.77719 0.842983 -8.06366e-20)
(0.686145 0.780941 1.67266e-19)
(0.611376 0.713378 -9.92947e-19)
(0.553677 0.642568 -9.92737e-19)
(0.489009 0.5511 -1.72085e-19)
(0.417223 0.411113 0)
(0.332944 0.269565 -4.11111e-21)
(0.245897 0.075485 5.9932e-19)
(0.240995 -0.036956 -1.00532e-18)
(0.208489 -0.112389 7.63726e-19)
(0.0885403 -0.100454 6.31876e-19)
(0.417722 0.383165 -3.43612e-19)
(0.920817 0.818679 -1.54314e-19)
(1.1331 1.03047 6.89315e-21)
(1.17852 1.07988 6.26099e-20)
(1.15129 1.08376 0)
(1.09212 1.05118 -4.31848e-20)
(1.0177 1.01161 -1.90127e-19)
(0.941576 0.968687 -2.25967e-21)
(0.855945 0.921929 -5.45584e-19)
(0.761432 0.867492 -7.92545e-20)
(0.667073 0.806385 7.36159e-20)
(0.586513 0.741542 8.72565e-19)
(0.515436 0.663284 9.68184e-19)
(0.455299 0.55616 1.68253e-19)
(0.375714 0.427983 8.57361e-19)
(0.271282 0.232936 0)
(0.145278 0.0555374 0)
(-0.0133918 0.171996 6.85896e-19)
(-0.0786463 0.62951 -2.67987e-20)
(0.00996176 1.54567 -8.52813e-19)
(0.416917 0.394195 1.89352e-19)
(0.915629 0.841691 4.36426e-19)
(1.12319 1.05676 -6.05184e-19)
(1.16648 1.10607 3.09712e-19)
(1.13868 1.10922 -1.17503e-20)
(1.07954 1.07617 7.11983e-21)
(1.00536 1.03649 0)
(0.928892 0.993208 -4.63717e-19)
(0.84237 0.946764 0)
(0.746514 0.893332 1.11331e-18)
(0.648963 0.833133 -9.04591e-20)
(0.562797 0.766046 1.01434e-19)
(0.490243 0.691078 1.1172e-18)
(0.400115 0.588929 -3.65623e-19)
(0.2863 0.410514 -4.34984e-19)
(0.1815 0.281854 0)
(0.0731433 0.455183 0)
(0.0241 1.3643 0)
(0.0710551 2.47474 -3.89143e-19)
(0.0970394 2.91624 -2.40573e-19)
(0.415349 0.404769 0)
(0.908192 0.859614 0)
(1.11234 1.07771 2.20154e-19)
(1.15501 1.12913 -2.52279e-19)
(1.12702 1.13305 1.18618e-19)
(1.06765 1.09975 2.3123e-21)
(0.993327 1.0599 2.50867e-20)
(0.916752 1.01711 -1.95316e-20)
(0.829574 0.971071 7.77091e-20)
(0.731793 0.918287 -1.27779e-18)
(0.6308 0.860205 1.63687e-19)
(0.539324 0.799281 8.7937e-19)
(0.448321 0.720893 -1.11242e-18)
(0.361637 0.596073 -1.23004e-18)
(0.263041 0.466701 4.12893e-19)
(0.178947 0.615448 0)
(0.112068 1.59164 5.60032e-19)
(0.117381 2.70209 6.02756e-19)
(0.124762 3.09085 -6.73288e-19)
(0.11758 3.22357 7.16075e-19)
(0.414326 0.415067 0)
(0.90355 0.880345 3.80852e-19)
(1.10323 1.10144 -5.51593e-20)
(1.14386 1.15267 3.47538e-19)
(1.11528 1.15601 -1.24509e-19)
(1.05593 1.12258 0)
(0.981841 1.08305 0)
(0.904992 1.04032 0)
(0.817117 0.99518 4.34242e-19)
(0.718295 0.944239 5.8667e-20)
(0.614541 0.8883 0)
(0.516801 0.825842 -8.73831e-19)
(0.42983 0.7533 0)
(0.304984 0.640685 8.80036e-19)
(0.198897 0.688698 -5.97292e-19)
(0.143412 1.46723 -4.7795e-19)
(0.147992 2.68854 -1.09624e-18)
(0.17168 3.12599 -5.75534e-19)
(0.162285 3.26505 -7.71856e-19)
(0.149496 3.30524 5.58488e-19)
(0.412675 0.424339 -1.32385e-19)
(0.896555 0.895811 1.47257e-20)
(1.0931 1.11958 -6.10874e-20)
(1.13331 1.17306 -2.69656e-19)
(1.10453 1.17743 0)
(1.04497 1.14406 0)
(0.970767 1.10465 0)
(0.893912 1.06291 3.28605e-20)
(0.805574 1.0188 -5.49314e-19)
(0.705101 0.969322 0)
(0.598214 0.916494 0)
(0.498076 0.862946 0)
(0.385701 0.785727 0)
(0.308642 0.733311 6.47457e-19)
(0.264489 1.13603 1.58633e-18)
(0.23705 2.4027 4.64746e-19)
(0.254718 3.08127 9.28423e-19)
(0.249308 3.27806 -7.10856e-19)
(0.201221 3.34339 2.59586e-19)
(0.169679 3.35666 0)
(0.411497 0.433483 1.35942e-19)
(0.892294 0.915005 -8.42152e-19)
(1.08458 1.14172 -2.27431e-19)
(1.12281 1.19486 -5.05412e-20)
(1.09345 1.19875 2.88814e-20)
(1.03394 1.16548 -1.17181e-19)
(0.96003 1.12672 -3.74142e-22)
(0.882982 1.08529 -3.58483e-19)
(0.794152 1.04248 0)
(0.6931 0.995535 -7.54604e-20)
(0.584773 0.945992 6.86479e-20)
(0.47856 0.890092 0)
(0.383078 0.826512 0)
(0.320895 0.926516 -8.1138e-19)
(0.265205 1.85173 1.02249e-19)
(0.261679 2.94498 -3.49748e-19)
(0.28698 3.28097 7.31155e-19)
(0.258221 3.37917 5.22328e-19)
(0.193981 3.40381 -7.05284e-19)
(0.169658 3.41408 3.47586e-19)
(0.409396 0.442881 2.66045e-19)
(0.88466 0.929701 8.18783e-19)
(1.07394 1.15909 2.73754e-19)
(1.11206 1.21481 0)
(1.08261 1.21997 0)
(1.02299 1.18683 9.07823e-20)
(0.949078 1.14819 5.12759e-20)
(0.872257 1.108 3.19088e-19)
(0.783306 1.06651 2.1206e-20)
(0.681181 1.02155 9.60534e-19)
(0.570623 0.975615 -1.14763e-18)
(0.459339 0.92573 0)
(0.380097 0.906283 0)
(0.332972 1.3046 -5.53982e-19)
(0.327762 2.49655 -6.64534e-19)
(0.372958 3.19352 0)
(0.398228 3.36116 -7.38483e-19)
(0.327361 3.42416 5.13104e-20)
(0.259285 3.46989 3.38075e-19)
(0.237258 3.49541 -1.09511e-19)
(0.407582 0.452605 -5.05375e-19)
(0.879827 0.950953 -3.92636e-19)
(1.06437 1.18362 0)
(1.10033 1.23837 0)
(1.07036 1.24269 0)
(1.01098 1.20951 0)
(0.937624 1.17152 -6.22736e-20)
(0.860856 1.13147 2.77422e-19)
(0.771812 1.09126 0)
(0.669907 1.04906 -8.74159e-19)
(0.55991 1.00668 2.06025e-18)
(0.44911 0.963979 8.45783e-20)
(0.395851 1.0266 1.14265e-19)
(0.384592 1.74006 9.0256e-19)
(0.395204 2.90136 -4.8527e-19)
(0.435475 3.31254 0)
(0.418453 3.43378 2.07703e-19)
(0.332596 3.52304 9.10918e-20)
(0.259141 3.58744 1.48994e-19)
(0.183625 3.56689 -1.63567e-20)
(0.404583 0.462876 2.40047e-19)
(0.870179 0.966544 -3.99086e-19)
(1.05166 1.20196 0)
(1.08792 1.25975 -7.39922e-20)
(1.05802 1.26554 2.55744e-19)
(0.998723 1.23228 0)
(0.925606 1.19411 0)
(0.849476 1.15529 -4.80805e-19)
(0.76085 1.11643 -5.56395e-20)
(0.658782 1.07629 8.57872e-19)
(0.544896 1.03708 -9.78793e-19)
(0.45197 1.01536 5.76812e-19)
(0.412408 1.21682 0)
(0.419801 2.18599 -4.78732e-19)
(0.461607 3.14179 3.13802e-19)