/*--------------------------------*- C++ -*----------------------------------*\
| =========                 |                                                 |
| \\      /  F ield         | OpenFOAM: The Open Source CFD Toolbox           |
|  \\    /   O peration     | Version:  v2012                                 |
|   \\  /    A nd           | Website:  www.openfoam.com                      |
|    \\/     M anipulation  |                                                 |
\*---------------------------------------------------------------------------*/
FoamFile
{
    version     2.0;
    format      ascii;
    class       surfaceScalarField;
    location    "50";
    object      phi;
}
// * * * * * * * * * * * * * * * * * * * * * * * * * * * * * * * * * * * * * //

dimensions      [0 3 -1 0 0 0 0];
oriented        oriented;


internalField   nonuniform List<scalar> 
4262
(
0.107142
0.470846
0.0955847
0.705143
0.0694125
0.858475
0.0474182
1.02076
0.031046
1.21489
0.0198503
1.44942
0.0124625
1.73325
0.00727371
2.07623
0.00335791
2.48916
-0.000310014
2.98596
-0.00397798
2.98596
-0.00787233
2.48914
-0.0129473
2.07611
-0.0202012
1.73312
-0.0312068
1.44923
-0.0472724
1.21458
-0.0690144
1.02051
-0.0952522
0.858541
-0.107082
0.705415
0.470906
0.112879
0.357967
0.13529
0.682732
0.120387
0.873378
0.0978162
1.04333
0.0745593
1.23815
0.0528324
1.47114
0.0344407
1.75164
0.0202238
2.09044
0.00888792
2.5005
-0.00122524
2.99607
-0.0112341
2.99597
-0.0222886
2.50019
-0.0363181
2.09014
-0.0545962
1.7514
-0.0763363
1.47097
-0.100017
1.23826
-0.123163
1.04365
-0.136852
0.87223
-0.113507
0.68207
0.357399
0.092073
0.265894
0.12503
0.649775
0.121192
0.877217
0.104981
1.05954
0.0863511
1.25677
0.0671995
1.49029
0.0482336
1.77061
0.0302048
2.10847
0.0137585
2.51694
-0.0020552
3.01189
-0.0177563
3.01167
-0.0338767
2.51631
-0.0514515
2.10772
-0.0698961
1.76984
-0.0883848
1.48945
-0.105787
1.25566
-0.120045
1.05791
-0.125278
0.877463
-0.0923509
0.649143
0.265048
0.0640286
0.201866
0.104897
0.608906
0.106647
0.875467
0.0952095
1.07098
0.0813124
1.27067
0.0666457
1.50496
0.0505291
1.78673
0.0333553
2.12564
0.0155925
2.5347
-0.00319166
3.03067
-0.0216861
3.03016
-0.0389531
2.53358
-0.0554677
2.12423
-0.0707183
1.78509
-0.0844753
1.50321
-0.0980997
1.26929
-0.109825
1.06964
-0.106911
0.874548
-0.0648579
0.60709
0.20019
0.0374918
0.164374
0.0807763
0.565621
0.09118
0.865064
0.0840388
1.07812
0.0714422
1.28327
0.059604
1.5168
0.0466481
1.79968
0.0317412
2.14055
0.0148745
2.55157
-0.00421104
3.04976
-0.0229849
3.04894
-0.0391376
2.54973
-0.053056
2.13815
-0.0651517
1.79719
-0.0764331
1.51449
-0.0883909
1.28125
-0.0947864
1.07603
-0.0830259
0.862788
-0.0383189
0.562383
0.161871
0.0195038
0.14487
0.0573018
0.527823
0.072725
0.849641
0.070672
1.08017
0.0619249
1.29202
0.051076
1.52765
0.0399522
1.81081
0.0273798
2.15312
0.012311
2.56664
-0.00538808
3.06746
-0.0228045
3.06635
-0.0370222
2.56395
-0.0485653
2.14969
-0.0585664
1.80719
-0.0684419
1.52437
-0.0761313
1.28894
-0.0770025
1.0769
-0.0599279
0.845713
-0.0203516
0.522807
0.14152
0.0106512
0.134219
0.0424683
0.496006
0.0586235
0.833485
0.0589095
1.07989
0.0527661
1.29816
0.0434247
1.53699
0.0331218
1.82111
0.0218392
2.16441
0.00864866
2.57983
-0.00717583
3.08328
-0.0224157
3.08159
-0.034324
2.57586
-0.0441818
2.15955
-0.0531521
1.81616
-0.0612069
1.53242
-0.065895
1.29362
-0.0640217
1.07503
-0.0457355
0.827427
-0.0116573
0.488729
0.129862
0.00664047
0.127578
0.0331648
0.469482
0.0496102
0.81704
0.0512502
1.07825
0.0461963
1.30321
0.0378171
1.54537
0.0281374
1.83079
0.017286
2.17526
0.00536597
2.59175
-0.00842967
3.09708
-0.0218298
3.09499
-0.0326604
2.58669
-0.0419159
2.1688
-0.0497616
1.824
-0.0563705
1.53903
-0.0595984
1.29685
-0.056052
1.07148
-0.0370439
0.808419
-0.00782405
0.459509
0.122038
0.00475916
0.122819
0.0266747
0.447566
0.0425433
0.801171
0.0447679
1.07602
0.0403297
1.30765
0.0328822
1.55282
0.0238557
1.83981
0.0133501
2.18576
0.00156987
2.60353
-0.0114525
3.1101
-0.0233588
3.1069
-0.0331249
2.59646
-0.0415174
2.1772
-0.0484539
1.83094
-0.053806
1.54438
-0.0560899
1.29914
-0.0511814
1.06657
-0.0316958
0.788933
-0.00627766
0.434091
0.115761
0.00378322
0.119036
0.0218785
0.429471
0.0371995
0.78585
0.0400741
1.07315
0.0358023
1.31192
0.0285662
1.56005
0.0198984
1.84848
0.00990785
2.19575
-0.00118412
2.61462
-0.0132093
3.12212
-0.0247567
3.11845
-0.0341744
2.60587
-0.0416322
2.18466
-0.047695
1.837
-0.0524594
1.54915
-0.0538035
1.30048
-0.0475245
1.0603
-0.0278717
0.769281
-0.00564671
0.411866
0.110114
0.00310791
0.115928
0.0177066
0.414872
0.0317788
0.771778
0.0349051
1.07002
0.0309389
1.31589
0.0239441
1.56705
0.0156013
1.85682
0.00589433
2.20546
-0.00526285
2.62578
-0.0175063
3.13437
-0.0282931
3.12924
-0.0364487
2.61403
-0.0430004
2.19121
-0.0480978
1.8421
-0.0518574
1.55291
-0.0521747
1.3008
-0.0447161
1.05284
-0.0250364
0.749601
-0.005346
0.392176
0.104768
0.00245438
0.113474
0.0140964
0.40323
0.026881
0.758994
0.0300685
1.06683
0.0261033
1.31985
0.0191501
1.574
0.0108811
1.86509
0.0014525
2.21489
-0.00899004
2.63622
-0.0203466
3.14572
-0.0306898
3.13958
-0.038574
2.62191
-0.0443121
2.19694
-0.0487852
1.84657
-0.0519057
1.55603
-0.051433
1.30032
-0.0426269
1.04403
-0.0229388
0.729913
-0.00517046
0.374407
0.0995976
0.0017181
0.111756
0.0106305
0.394318
0.021639
0.747985
0.0245348
1.06394
0.0206749
1.32371
0.0138148
1.58086
0.00555549
1.87335
-0.00372893
2.22417
-0.0143983
2.64689
-0.0262545
3.15758
-0.0360176
3.14934
-0.0424743
2.62837
-0.0471448
2.20162
-0.0507771
1.85021
-0.0526255
1.55788
-0.0512931
1.29899
-0.0412863
1.03402
-0.0215247
0.710151
-0.00506611
0.357949
0.0945315
0.000907652
0.110848
0.00731013
0.387915
0.016711
0.738584
0.019216
1.06143
0.0150931
1.32784
0.00800472
1.58795
-0.000476808
1.88183
-0.010155
2.23385
-0.0205758
2.65731
-0.0311876
3.16819
-0.0402783
3.15843
-0.0465375
2.63463
-0.050427
2.2055
-0.0532215
1.853
-0.0540264
1.55868
-0.0517722
1.29674
-0.0404075
1.02266
-0.0204772
0.690221
-0.00495194
0.342423
0.0895795
0.000213499
0.110635
0.00435857
0.38377
0.0112492
0.731694
0.0125795
1.0601
0.00817938
1.33224
0.000964484
1.59516
-0.00788044
1.89068
-0.0177166
2.24369
-0.028403
2.668
-0.0392411
3.17903
-0.0473929
3.16658
-0.05195
2.63919
-0.054874
2.20843
-0.0567075
1.85483
-0.0566494
1.55862
-0.0529654
1.29305
-0.0403616
1.01006
-0.020098
0.669957
-0.00500444
0.32733
0.0845751
-0.00075022
0.111385
0.000700364
0.38232
0.00571763
0.726676
0.00631717
1.0595
0.00107097
1.33748
-0.00707821
1.60331
-0.0165007
1.9001
-0.0267646
2.25395
-0.037227
2.67846
-0.0469125
3.18872
-0.0538698
3.17354
-0.0579555
2.64327
-0.0600128
2.21049
-0.0610197
1.85584
-0.0600822
1.55769
-0.0547608
1.28773
-0.040703
0.995997
-0.0199527
0.649207
-0.00505124
0.312428
0.0795239
-0.00160125
0.112986
-0.00241685
0.383135
-0.000423902
0.724683
-0.0019982
1.06108
-0.00806623
1.34355
-0.0166671
1.61191
-0.0267632
1.9102
-0.0376434
2.26483
-0.048645
2.68946
-0.0586381
3.19871
-0.0650977
3.18
-0.0677344
2.64591
-0.0683156
2.21107
-0.067772
1.8553
-0.0653196
1.55523
-0.0583264
1.28074
-0.0423411
0.980012
-0.0205721
0.627438
-0.00530965
0.297166
0.0742142
-0.00297041
0.115956
-0.00616625
0.386331
-0.00756866
0.726086
-0.0101714
1.06368
-0.0173431
1.35072
-0.0274404
1.62201
-0.0385415
1.9213
-0.0499871
2.27628
-0.0611065
2.70058
-0.0704176
3.20802
-0.0752043
3.18479
-0.0764617
2.64717
-0.0759004
2.21051
-0.0746644
1.85406
-0.0713641
1.55193
-0.0625679
1.27194
-0.0444654
0.96191
-0.021524
0.604496
-0.00563912
0.281281
0.0685751
-0.00426492
0.120221
-0.0103954
0.392462
-0.0153321
0.731022
-0.021288
1.06963
-0.0295961
1.35903
-0.0404059
1.63282
-0.0525461
1.93344
-0.0653047
2.28904
-0.0775799
2.71286
-0.0873348
3.21777
-0.0918412
3.18929
-0.0921896
2.64751
-0.0899373
2.20825
-0.086016
1.85014
-0.0797944
1.54571
-0.068401
1.26055
-0.0477251
0.941234
-0.0230754
0.579847
-0.00610229
0.264308
0.0624728
-0.00570555
0.125927
-0.0153486
0.402105
-0.0241527
0.739826
-0.0326043
1.07809
-0.0429447
1.36937
-0.0557923
1.64567
-0.0694316
1.94708
-0.0831247
2.30273
-0.0956576
2.72539
-0.104956
3.22707
-0.107764
3.1921
-0.105425
2.64517
-0.100685
2.20351
-0.096006
1.84546
-0.0891582
1.53886
-0.0752892
1.24668
-0.0517315
0.917676
-0.0249763
0.553092
-0.00664011
0.245972
0.0558327
-0.00799221
0.133919
-0.0222358
0.416348
-0.0365445
0.754135
-0.0484969
1.09004
-0.060456
1.38133
-0.0748217
1.66003
-0.0905417
1.9628
-0.106524
2.31871
-0.120485
2.73935
-0.129096
3.23569
-0.129772
3.19278
-0.125927
2.64133
-0.120545
2.19813
-0.112295
1.83721
-0.101296
1.52786
-0.0838091
1.22919
-0.0566954
0.890562
-0.0272374
0.523634
-0.00721905
0.225953
0.0486136
-0.0105123
0.144431
-0.0297528
0.435589
-0.0501941
0.774577
-0.0669838
1.10683
-0.0823569
1.3967
-0.0998223
1.6775
-0.117891
1.98087
-0.134831
2.33565
-0.147891
2.75241
-0.154314
3.24211
-0.152878
3.19134
-0.14634
2.63479
-0.137092
2.18888
-0.127485
1.8276
-0.114952
1.51533
-0.0937333
1.20798
-0.0623517
0.859181
-0.0297869
0.491069
-0.00781306
0.20398
0.0408006
-0.0152346
0.159666
-0.0420817
0.462436
-0.0693937
0.801889
-0.0913615
1.1288
-0.110556
1.4159
-0.13137
1.69831
-0.151746
2.00124
-0.17021
2.35412
-0.18385
2.76605
-0.189119
3.24738
-0.183669
3.18589
-0.173408
2.62453
-0.161945
2.17742
-0.148709
1.81437
-0.131189
1.49781
-0.105234
1.18202
-0.0690935
0.82304
-0.0326952
0.45467
-0.00835757
0.179642
0.032443
-0.0195343
0.1792
-0.0554892
0.498391
-0.0926377
0.839037
-0.121921
1.15808
-0.146478
1.44046
-0.171442
1.72328
-0.19426
2.02406
-0.212848
2.3727
-0.224275
2.77748
-0.225115
3.24822
-0.21625
3.17703
-0.202501
2.61078
-0.186656
2.16158
-0.170481
1.79819
-0.150233
1.47756
-0.118812
1.1506
-0.0765548
0.780782
-0.0355604
0.413676
-0.00869069
0.152772
0.0237523
-0.0325201
0.21172
-0.0814996
0.54737
-0.128449
0.885987
-0.164389
1.19402
-0.194977
1.47104
-0.224279
1.75258
-0.248209
2.04799
-0.266017
2.39051
-0.275055
2.78652
-0.272506
3.24567
-0.257565
3.16209
-0.238738
2.59196
-0.220321
2.14316
-0.199717
1.77759
-0.172899
1.45075
-0.134699
1.1124
-0.0853659
0.731449
-0.0387226
0.367033
-0.00890492
0.122955
0.0148474
-0.0470835
0.258804
-0.120687
0.620974
-0.183559
0.948859
-0.227712
1.23817
-0.263683
1.50701
-0.293317
1.78221
-0.314812
2.06949
-0.328273
2.40397
-0.331173
2.78942
-0.320457
3.23495
-0.299739
3.14137
-0.276588
2.5688
-0.252542
2.11911
-0.22817
1.75322
-0.197049
1.41962
-0.150338
1.06569
-0.0920962
0.673207
-0.0398411
0.314778
-0.00881023
0.0919237
0.00603715
-0.0339533
0.292757
-0.0970949
0.684115
-0.154999
1.00676
-0.201929
1.2851
-0.244397
1.54948
-0.281883
1.8197
-0.316396
2.104
-0.346918
2.43449
-0.369232
2.81173
-0.377862
3.24358
-0.368417
3.13192
-0.348548
2.54894
-0.324819
2.09538
-0.292669
1.72107
-0.244501
1.37146
-0.17795
0.999139
-0.101556
0.596813
-0.0399181
0.25314
-0.00887573
0.0608813
-0.00283857
-0.0127965
0.305554
-0.0477833
0.719102
-0.089038
1.04802
-0.127911
1.32397
-0.166318
1.58789
-0.200045
1.85343
-0.230961
2.13492
-0.256522
2.46006
-0.272157
2.82737
-0.273852
3.24527
-0.259966
3.11804
-0.236928
2.5259
-0.206096
2.06455
-0.170455
1.68543
-0.131377
1.33238
-0.0847668
0.952529
-0.0393407
0.551387
-0.0129033
0.226703
-0.00296095
0.0509389
-0.00579953
0.000157539
0.305396
-0.0246262
0.743886
-0.0541693
1.07756
-0.0839355
1.35374
-0.114665
1.61862
-0.144533
1.88329
-0.1717
2.16208
-0.193749
2.4821
-0.207785
2.8414
-0.20788
3.24537
-0.188972
3.09913
-0.159135
2.49606
-0.128863
2.03428
-0.0974026
1.65397
-0.0601802
1.29515
-0.0238908
0.91624
-0.000689537
0.528185
0.00381846
0.222195
0.0010588
0.0536986
-0.00474073
0.000784332
0.304612
-0.0124134
0.757084
-0.0338091
1.09896
-0.0583713
1.3783
-0.0839572
1.6442
-0.109029
1.90837
-0.132207
2.18526
-0.150873
2.50077
-0.160912
2.85144
-0.155073
3.23953
-0.135165
3.07922
-0.110587
2.47148
-0.0788507
2.00254
-0.0444054
1.61952
-0.0157387
1.26649
0.00585093
0.89465
0.0153403
0.518696
0.0110489
0.226486
0.00333814
0.0614094
-0.00140259
0.00388962
0.300722
-0.0057188
0.766692
-0.0236531
1.11689
-0.0440096
1.39866
-0.0653674
1.66556
-0.0867622
1.92976
-0.107038
2.20554
-0.12341
2.51714
-0.131939
2.85997
-0.128038
3.23563
-0.10977
3.06095
-0.0806448
2.44236
-0.0509967
1.9729
-0.0234686
1.59199
0.0044291
1.23859
0.0232488
0.87583
0.0252583
0.516687
0.0153001
0.236444
0.00447509
0.0722343
0.0030725
0.0051841
0.295538
-0.000920137
0.772796
-0.0171145
1.13309
-0.0356003
1.41715
-0.0546837
1.68465
-0.0734724
1.94855
-0.0911298
2.22319
-0.105236
2.53125
-0.111864
2.8666
-0.106307
3.23007
-0.086101
3.04075
-0.0610863
2.41734
-0.035544
1.94735
-0.00819913
1.56465
0.0128604
1.21753
0.0254916
0.863199
0.0258563
0.516322
0.0153324
0.246968
0.00463163
0.0829351
0.00770413
0.00373075
0.291807
-0.000875567
0.777403
-0.0143555
1.14656
-0.0311217
1.43391
-0.0483066
1.70183
-0.0654561
1.9657
-0.0818829
2.23962
-0.0955556
2.54492
-0.103158
2.8742
-0.0996148
3.22653
-0.0821618
3.02329
-0.0595485
2.39473
-0.033968
1.92177
-0.0110792
1.54176
0.0101426
1.19631
0.0234539
0.849888
0.0224015
0.517374
0.0134079
0.255962
0.00410325
0.0922397
0.0118074
0.00239108
0.289416
-0.00157854
0.781372
-0.0137592
1.15875
-0.0287806
1.44893
-0.0450938
1.71814
-0.0613647
1.98197
-0.0770027
2.25526
-0.0900886
2.55801
-0.0969094
2.88102
-0.0926289
3.22225
-0.0781888
3.00885
-0.0588103
2.37535
-0.037758
1.90072
-0.0134692
1.51747
0.00503486
1.1778
0.0156636
0.839259
0.0169911
0.516047
0.00983099
0.263122
0.00299985
0.0990709
0.0148072
9.16424e-05
0.289324
-0.00396326
0.785427
-0.0148376
1.16962
-0.0284573
1.46255
-0.043667
1.73335
-0.0592176
1.99752
-0.0745289
2.27057
-0.0877623
2.57124
-0.0963299
2.88959
-0.0960986
3.22202
-0.0840099
2.99676
-0.0654385
2.35678
-0.0424416
1.87772
-0.0231715
1.4982
-0.00365082
1.15828
0.00874989
0.826858
0.0095042
0.515293
0.00601541
0.266611
0.00199119
0.103095
0.0167984
-0.000679314
0.290004
-0.0057224
0.79047
-0.0158553
1.17975
-0.028713
1.47541
-0.043451
1.74809
-0.058595
2.01267
-0.0736958
2.28567
-0.0873691
2.58492
-0.0967798
2.899
-0.0971284
3.22237
-0.0863924
2.98603
-0.0697297
2.34012
-0.0518736
1.85987
-0.0302752
1.4766
-0.0133588
1.14137
-0.00262614
0.816126
0.00201619
0.51065
0.00128767
0.267339
0.000724213
0.103659
0.0175226
-0.00219844
0.292202
-0.00776164
0.796033
-0.0175154
1.18951
-0.0297045
1.4876
-0.0436554
1.76204
-0.0583764
2.02739
-0.07362
2.30091
-0.0879886
2.59928
-0.098789
2.9098
-0.102671
3.22625
-0.0947594
2.97812
-0.0778638
2.32322
-0.0577495
1.83975
-0.0402901
1.45914
-0.0224875
1.12357
-0.00956014
0.803198
-0.00446243
0.505553
-0.00183263
0.264709
-0.000393929
0.10222
0.0171287
-0.00354105
0.295743
-0.00926375
0.801756
-0.0186687
1.19891
-0.0304384
1.49937
-0.0440758
1.77568
-0.0586458
2.04196
-0.0739802
2.31625
-0.0889084
2.61421
-0.101094
2.92198
-0.107
3.23216
-0.100366
2.97148
-0.0857694
2.30862
-0.0685651
1.82255
-0.0471879
1.43776
-0.0301993
1.10658
-0.0178622
0.790861
-0.00909235
0.496783
-0.00434021
0.259957
-0.00100067
0.0988803
0.016128
-0.00418082
0.299924
-0.0104858
0.808061
-0.019899
1.20832
-0.0313073
1.51078
-0.044424
1.7888
-0.0586946
2.05623
-0.0741453
2.3317
-0.0897482
2.62982
-0.103592
2.93583
-0.112029
3.24059
-0.108953
2.96841
-0.0957153
2.29539
-0.0741553
1.80099
-0.0553761
1.41899
-0.0364187
1.08762
-0.0217342
0.776177
-0.013131
0.48818
-0.00559028
0.252417
-0.00138738
0.0946775
0.0147407
-0.00438672
0.304311
-0.0112124
0.814887
-0.0205181
1.21763
-0.0316652
1.52192
-0.0445786
1.80171
-0.0587065
2.07035
-0.0742461
2.34724
-0.090491
2.64606
-0.105814
2.95115
-0.116635
3.25141
-0.116497
2.96827
-0.103873
2.28276
-0.0853584
1.78247
-0.060893
1.39452
-0.0416365
1.06836
-0.0267682
0.761308
-0.0143755
0.475787
-0.00636022
0.244401
-0.00144543
0.0897627
0.0132952
-0.00443996
0.308751
-0.0116745
0.822121
-0.0210205
1.22698
-0.031928
1.53283
-0.0444474
1.81423
-0.0583018
2.08421
-0.0739095
2.36285
-0.0907004
2.66285
-0.107352
2.9678
-0.120607
3.26467
-0.123058
2.97072
-0.112089
2.27179
-0.0899311
1.76032
-0.0674049
1.37199
-0.0442905
1.04525
-0.026648
0.743666
-0.01508
0.464219
-0.00574043
0.235062
-0.00118013
0.0852024
0.0121151
-0.0045089
0.31326
-0.0119263
0.829539
-0.0210408
1.23609
-0.0316907
1.54348
-0.0440072
1.82655
-0.0577098
2.09791
-0.0733545
2.37849
-0.0906426
2.68014
-0.10867
2.98583
-0.124506
3.2805
-0.129852
2.97607
-0.120124
2.26206
-0.101493
1.74169
-0.0727314
1.34323
-0.0464981
1.01901
-0.0259359
0.723104
-0.0106181
0.448901
-0.00305501
0.227499
-1.00263e-05
0.0821574
0.0121051
-0.00452961
0.317789
-0.0119542
0.836963
-0.0209368
1.24507
-0.0313233
1.55387
-0.0432749
1.8385
-0.0567144
2.11135
-0.0723262
2.3941
-0.0899658
2.69778
-0.108932
3.0048
-0.126511
3.29808
-0.134865
2.98442
-0.128193
2.25539
-0.106359
1.71985
-0.0791963
1.31607
-0.0463422
0.986161
-0.0194417
0.696203
-0.00308181
0.432541
0.00233733
0.222079
-0.00152226
0.086017
0.0105828
-0.00454092
0.32233
-0.0118911
0.844313
-0.0205248
1.25371
-0.0305877
1.56393
-0.0422713
1.85018
-0.0554969
2.12458
-0.0710323
2.40964
-0.0889516
2.7157
-0.108918
3.02476
-0.128792
3.31796
-0.139912
2.99554
-0.135501
2.25098
-0.11912
1.70347
-0.0862055
1.28315
-0.0474703
0.947426
-0.00868282
0.657416
0.0235629
0.400295
0.0361824
0.20946
0.0252507
0.0969487
0.0358335
-0.00442994
0.32676
-0.0116043
0.851488
-0.0200228
1.26213
-0.0297556
1.57366
-0.0410264
1.86145
-0.0539403
2.13749
-0.0693226
2.42502
-0.0873874
2.73376
-0.107925
3.0453
-0.129069
3.3391
-0.142891
3.00936
-0.144021
2.25211
-0.125525
1.68498
-0.0951386
1.25277
-0.048635
0.900922
0.00014879
0.608632
0.0437065
0.356738
0.046303
0.206863
0.0203616
0.12289
0.0561951
-0.00428313
0.331043
-0.0113026
0.858507
-0.0193314
1.27015
-0.0286683
1.583
-0.0396298
1.87241
-0.0522544
2.15012
-0.0674543
2.44022
-0.0855843
2.75189
-0.106725
3.06644
-0.129743
3.36212
-0.145736
3.02535
-0.149183
2.25556
-0.139794
1.67559
-0.107964
1.22094
-0.0593189
0.852277
0.0135621
0.535751
0.113522
0.256778
0.191055
0.12933
0.181377
0.132569
0.237572
-0.00413531
0.335179
-0.0110126
0.865385
-0.0190253
1.27817
-0.0283523
1.59233
-0.0394373
1.8835
-0.0524934
2.16317
-0.0685833
2.45631
-0.0882689
2.77158
-0.111977
3.09015
-0.138916
3.38906
-0.160984
3.04742
-0.171897
2.26647
-0.162737
1.66643
-0.135562
1.19376
-0.0805708
0.797285
-0.0248698
0.48005
-0.0727943
0.304703
-0.358145
0.414681
-0.94073
0.715154
0.899757
-1.60292
-0.00396563
0.339144
-0.0107009
0.87212
-0.0184267
1.28589
-0.0275592
1.60146
-0.0385636
1.8945
-0.0517298
2.17634
-0.0682341
2.47281
-0.0888494
2.79219
-0.114448
3.11575
-0.145231
3.41984
-0.172055
3.07425
-0.186553
2.28097
-0.195452
1.67533
-0.180097
1.17841
-0.155424
0.772613
-0.245945
0.57057
-0.693112
0.75187
-1.44009
1.16166
-2.04827
1.32333
1.21708
-2.3656
-0.00373824
0.342882
-0.0101715
0.878553
-0.0177144
1.29344
-0.0266518
1.6104
-0.0374838
1.90534
-0.0507148
2.18957
-0.0675805
2.48968
-0.0890451
2.81366
-0.116421
3.14312
-0.150393
3.45381
-0.183583
3.10744
-0.209932
2.30732
-0.220059
1.68545
-0.211941
1.17029
-0.298471
0.859143
-0.753517
1.02562
-1.5418
1.54016
-2.10873
1.72859
-2.34832
1.56292
1.33149
-2.46272
-0.00357424
0.346457
-0.00970925
0.884688
-0.0168897
1.30062
-0.0255784
1.61909
-0.0362617
1.91602
-0.0495166
2.20282
-0.0666747
2.50684
-0.0889568
2.83594
-0.118097
3.17226
-0.155972
3.49169
-0.195125
3.14659
-0.225117
2.33731
-0.25461
1.71495
-0.336764
1.25244
-0.687426
1.20981
-1.4356
1.77379
-2.02595
2.13051
-2.26592
1.96855
-2.37926
1.67626
1.39591
-2.44368
-0.00328211
0.349739
-0.0090002
0.890406
-0.015911
1.30753
-0.0243323
1.62751
-0.0348409
1.92653
-0.0480837
2.21607
-0.0654768
2.52423
-0.0884428
2.85891
-0.119207
3.20303
-0.160413
3.53289
-0.206868
3.19304
-0.252223
2.38267
-0.295775
1.7585
-0.476509
1.43318
-1.09303
1.82632
-1.78635
2.46711
-2.10779
2.45195
-2.25623
2.117
-2.33835
1.75838
1.46172
-2.40416
-0.00323222
0.352971
-0.00890169
0.896076
-0.0157076
1.31433
-0.0241553
1.63596
-0.0349266
1.9373
-0.0484573
2.2296
-0.0663581
2.54213
-0.0902944
2.88284
-0.122822
3.23556
-0.167847
3.57792
-0.220355
3.24555
-0.266827
2.42914
-0.357816
1.84949
-0.748617
1.82398
-1.48898
2.56669
-1.96298
2.94111
-2.16293
2.6519
-2.2692
2.22326
-2.34623
1.83541
1.52528
-2.40979
-0.00330076
0.356272
-0.00915235
0.901927
-0.0164013
1.32158
-0.0252936
1.64485
-0.0365363
1.94854
-0.0507225
2.24378
-0.0695038
2.56091
-0.0946438
2.90798
-0.129132
3.27004
-0.177906
3.62669
-0.235281
3.30293
-0.299456
2.49331
-0.488874
2.0389
-1.04629
2.3814
-1.6773
3.19769
-1.95349
3.21731
-2.10049
2.79889
-2.21432
2.33709
-2.30782
1.92891
1.58697
-2.3695
-0.00337855
0.35965
-0.0096251
0.908174
-0.0171837
1.32914
-0.026549
1.65421
-0.0383609
1.96035
-0.0531997
2.25862
-0.0728576
2.58057
-0.0993339
2.93446
-0.135773
3.30648
-0.188128
3.67905
-0.251023
3.36582
-0.33728
2.57957
-0.618993
2.32062
-1.26306
3.02547
-1.75265
3.68728
-1.95986
3.42451
-2.09991
2.93895
-2.22363
2.46081
-2.33415
2.03943
1.64556
-2.39274
-0.00333019
0.362981
-0.00972837
0.914572
-0.0178796
1.33729
-0.0277921
1.66413
-0.0401109
1.97267
-0.0556693
2.27418
-0.0762806
2.60118
-0.103988
2.96217
-0.142332
3.34483
-0.197505
3.73422
-0.265147
3.43346
-0.390847
2.70527
-0.776577
2.70635
-1.40969
3.65858
-1.76312
4.04071
-1.93612
3.59752
-2.03808
3.0409
-2.12667
2.5494
-2.19405
2.10681
1.63839
-2.18688
-0.00328496
0.366266
-0.0101281
0.921415
-0.0185833
1.34575
-0.0290319
1.67457
-0.0420402
1.98568
-0.058298
2.29044
-0.0798047
2.62269
-0.10889
2.99125
-0.149101
3.38504
-0.206064
3.79118
-0.285091
3.51249
-0.45513
2.87531
-0.90643
3.15765
-1.46218
4.21433
-1.72436
4.30289
-1.87637
3.74953
-1.96968
3.13421
-1.97129
2.55102
-1.90255
2.03806
1.60357
-1.86772
-0.00307713
0.369343
-0.00990082
0.928239
-0.0189972
1.35484
-0.0299469
1.68552
-0.0433165
1.99905
-0.0600569
2.30718
-0.0820544
2.64469
-0.111456
3.02065
-0.151994
3.42558
-0.208335
3.84752
-0.293721
3.59788
-0.498718
3.08031
-0.988073
3.647
-1.42952
4.65578
-1.59499
4.46836
-1.66219
3.81673
-1.66675
3.13877
-1.51926
2.40353
-1.01916
1.53796
0.584414
-0.00259915
0.371942
-0.0100413
0.935681
-0.0193837
1.36419
-0.0310195
1.69716
-0.0455209
2.01355
-0.0635522
2.32521
-0.0873527
2.66849
-0.119544
3.05284
-0.164127
3.47016
-0.22695
3.91035
-0.330657
3.70158
-0.585398
3.33505
-1.12341
4.18501
-1.48204
5.0144
-1.58166
4.56798
-1.57966
3.81473
-1.47634
3.03544
-1.23699
2.16418
-0.633514
0.934481
-0.0491003
-0.0021753
0.374117
-0.00912015
0.942626
-0.0191923
1.37426
-0.0315996
1.70957
-0.0468808
2.02883
-0.066265
2.34459
-0.0920415
2.69426
-0.126816
3.08762
-0.175573
3.51892
-0.244736
3.97951
-0.366773
3.82362
-0.680992
3.64927
-1.24095
4.74497
-1.50309
5.27654
-1.56168
4.62657
-1.5397
3.79276
-1.33734
2.83308
-0.784883
1.61172
-0.109647
0.259246
-0.158747
-0.00162833
0.375745
-0.00874183
0.949739
-0.0187118
1.38423
-0.0317303
1.72259
-0.0481474
2.04525
-0.068786
2.36523
-0.0963422
2.72182
-0.134038
3.12531
-0.186529
3.57141
-0.263803
4.05679
-0.413014
3.97283
-0.785756
4.02201
-1.32032
5.27953
-1.49659
5.45281
-1.52796
4.65795
-1.43965
3.70445
-1.10371
2.49715
-0.314911
0.822919
0.0253303
-0.0809957
-0.133417
-0.000483631
0.376229
-0.00646243
0.955718
-0.0171153
1.39488
-0.0308749
1.73635
-0.0478106
2.06219
-0.069702
2.38712
-0.0991953
2.75131
-0.139212
3.16533
-0.194546
3.62674
-0.280529
4.14277
-0.454503
4.14681
-0.8913
4.45881
-1.36355
5.75178
-1.48164
5.5709
-1.48394
4.66024
-1.2608
3.48132
-0.689537
1.92588
-0.0626933
0.196076
0.0308974
-0.174586
-0.102519
0.000447668
0.375781
-0.00465999
0.960826
-0.0148271
1.40505
-0.0290364
1.75055
-0.0469128
2.08006
-0.0699457
2.41016
-0.100919
2.78229
-0.143341
3.20775
-0.201674
3.68508
-0.296928
4.23802
-0.499201
4.34908
-0.986355
4.94596
-1.36149
6.12692
-1.42451
5.63392
-1.37908
4.61481
-1.09033
3.19257
-0.324816
1.16036
0.00490925
-0.13365
0.0153646
-0.185042
-0.0871549
0.00326286
0.372519
0.000463066
0.963626
-0.0106059
1.41612
-0.0254009
1.76535
-0.0431955
2.09786
-0.0672165
2.43418
-0.0996942
2.81476
-0.143757
3.25181
-0.204741
3.74606
-0.307992
4.34127
-0.534221
4.57531
-1.0451
5.45684
-1.3214
6.40323
-1.3638
5.67632
-1.22559
4.4766
-0.775833
2.74281
-0.0714753
0.456006
0.0459471
-0.251072
0.0252514
-0.164346
-0.0619035
0.00488223
0.367636
0.00340819
0.9651
-0.00572897
1.42525
-0.0197253
1.77935
-0.0381233
2.11625
-0.0629645
2.45902
-0.0962064
2.84801
-0.141829
3.29744
-0.205325
3.80956
-0.316467
4.45241
-0.573907
4.83275
-1.06853
5.95146
-1.2603
6.595
-1.26921
5.68522
-1.05075
4.25815
-0.462315
2.15438
-0.0141461
0.00783722
-0.00290836
-0.26231
0.00731422
-0.174569
-0.0545893
0.00854771
0.359089
0.00999608
0.963651
0.00263119
1.43262
-0.0107939
1.79277
-0.0287749
2.13424
-0.0537187
2.48396
-0.0874048
2.88169
-0.133148
3.34318
-0.198082
3.87449
-0.315288
4.56962
-0.591904
5.10936
-1.04359
6.40316
-1.16438
6.71578
-1.15271
5.67355
-0.897715
4.00315
-0.266792
1.52345
-0.0707215
-0.188233
-0.0377657
-0.295266
-0.0129027
-0.199432
-0.067492
0.0118198
0.347269
0.0171842
0.958287
0.0129664
1.43684
0.00216618
1.80357
-0.0168189
2.15322
-0.0412733
2.50842
-0.0743074
2.91473
-0.120056
3.38893
-0.18551
3.93995
-0.306319
4.69043
-0.591674
5.39472
-0.977642
6.78912
-1.04873
6.78686
-0.978105
5.60293
-0.684192
3.70924
-0.0867488
0.92601
-0.00480612
-0.270176
-0.0137988
-0.286273
-0.00617556
-0.207055
-0.0736676
0.0182355
0.329033
0.0297581
0.946764
0.028213
1.43838
0.0178633
1.81392
0.00128402
2.1698
-0.0207438
2.53045
-0.0524268
2.94641
-0.0962929
3.4328
-0.159618
4.00327
-0.279821
4.81063
-0.552721
5.66762
-0.862617
7.09902
-0.895455
6.8197
-0.800758
5.50823
-0.460823
3.36931
0.0430187
0.422168
0.0588305
-0.285988
0.0403434
-0.267786
0.0146741
-0.181386
-0.0589935
0.0244099
0.304623
0.0431718
0.928002
0.047365
1.43419
0.040659
1.82063
0.0273281
2.18313
0.00606671
2.55171
-0.0232268
2.9757
-0.064049
3.47362
-0.124081
4.0633
-0.237713
4.92426
-0.477947
5.90785
-0.700931
7.322
-0.737875
6.85665
-0.62053
5.39088
-0.298205
3.04698
-0.00235149
0.126315
0.0199607
-0.3083
0.0308515
-0.278677
0.0153616
-0.165896
-0.0436319
0.034444
0.270179
0.0640676
0.898379
0.0746307
1.42363
0.0719281
1.82333
0.0626501
2.19241
0.0449579
2.5694
0.0192709
3.00139
-0.0173328
3.51022
-0.0701022
4.11607
-0.166299
5.02046
-0.358029
6.09958
-0.510154
7.47413
-0.540508
6.887
-0.450701
5.30108
-0.152998
2.74928
-0.0312615
0.00457865
-0.0138823
-0.325679
0.0181398
-0.310699
0.0179942
-0.16575
-0.0256377
0.0439607
0.226219
0.086598
0.855742
0.107703
1.40252
0.112578
1.81845
0.107969
2.19702
0.0942193
2.58315
0.0745012
3.02111
0.0451978
3.53952
-0.00310279
4.16437
-0.0718013
5.08916
-0.200236
6.22802
-0.282398
7.55629
-0.303002
6.9076
-0.248454
5.24653
-0.0321999
2.53302
-0.0627107
0.0350895
-0.0589557
-0.329434
-0.0096835
-0.359971
0.0233243
-0.198758
-0.00231336
0.0563089
0.16991
0.117552
0.794498
0.152945
1.36713
0.165438
1.80596
0.167323
2.19513
0.159596
2.59088
0.147312
3.03339
0.128217
3.55862
0.0994286
4.19316
0.0594164
5.12917
0.0226231
6.26481
-0.0160481
7.59496
-0.0414079
6.93296
-0.125385
5.33051
-0.200863
2.6085
-0.434533
0.26876
-0.449022
-0.314946
-0.317956
-0.491036
-0.124044
-0.392671
-0.126357
0.059408
0.110502
0.147571
0.706335
0.203869
1.31083
0.231186
1.77864
0.242362
2.18396
0.241799
2.59144
0.237924
3.03727
0.230561
3.56598
0.221436
4.20229
0.210822
5.13979
0.286122
6.18951
0.355058
7.52603
0.288988
6.99903
0.0551608
5.56433
-0.368569
3.03223
-0.760587
0.660778
-0.782217
-0.293316
-0.596859
-0.676394
-0.281173
-0.708356
-0.40753
0.0508972
0.0596046
0.178602
0.578631
0.269647
1.21978
0.313294
1.735
0.334971
2.16228
0.345315
2.58109
0.34981
3.03277
0.357854
3.55794
0.373692
4.18645
0.409033
5.10445
0.586694
6.01185
0.809329
7.30339
0.899682
6.90868
0.906363
5.55765
0.468973
3.46962
-0.159325
1.28908
-0.544919
0.0922782
-0.599856
-0.621457
-0.324238
-0.983974
-0.731769
0.0357617
0.023843
0.211868
0.402524
0.335095
1.09656
0.410698
1.65939
0.44963
2.12335
0.472814
2.55791
0.485745
3.01984
0.50796
3.53572
0.549338
4.14507
0.642159
5.01162
0.972471
5.68154
1.51194
6.76392
1.93086
6.48977
2.25339
5.23512
2.06392
3.6591
1.33127
2.02172
0.702613
0.720937
0.233088
-0.151931
-0.0018084
-0.749078
-0.733577
0.0313101
-0.00746717
0.232277
0.201558
0.425553
0.903281
0.531027
1.55392
0.584859
2.06952
0.62174
2.52103
0.646882
2.9947
0.680605
3.502
0.750702
4.07497
0.899626
4.8627
1.33229
5.24888
2.10857
5.98764
2.51176
6.08658
2.7127
5.03418
2.55428
3.81752
2.06096
2.51504
1.50443
1.27747
0.988159
0.364336
0.392545
-0.153465
-0.341032
0.0280947
-0.0355619
0.174852
0.0548006
0.47677
0.601363
0.658507
1.37218
0.747148
1.98087
0.796998
2.47118
0.837531
2.95417
0.873965
3.46557
0.9517
3.99724
1.10063
4.71377
1.45332
4.89619
2.2188
5.22216
2.58427
5.72111
2.75061
4.86784
2.65982
3.90831
2.24039
2.93447
1.61325
1.90461
0.95806
1.01952
0.40986
0.394735
0.0688285
0.00923593
-0.0447978
0.091436
-0.0273995
0.406808
0.28599
0.662637
1.11636
0.785785
1.85773
0.821422
2.43554
0.831266
2.94432
0.821407
3.47543
0.820012
3.99863
0.864561
4.66922
0.97308
4.78767
1.34091
4.85432
1.54824
5.51379
1.56332
4.85276
1.48759
3.98403
1.29069
3.13138
0.957879
2.23742
0.599211
1.37819
0.246989
0.746958
0.315817
-0.00206947
-0.0427284
0.0362125
-0.0656815
0.232567
0.089636
0.496141
0.852781
0.640432
1.71344
0.691194
2.38478
0.70705
2.92847
0.702589
3.47989
0.686575
4.01465
0.698685
4.65711
0.745768
4.74058
0.968608
4.63148
1.18579
5.29661
1.18928
4.84926
1.12496
4.04836
0.984886
3.27145
0.744016
2.47829
0.459732
1.66248
0.185445
1.02125
0.501262
4.11652e-05
-0.0427695
0.0255168
-0.0911571
0.114969
0.000183788
0.352793
0.614957
0.489019
1.57721
0.546265
2.32753
0.565154
2.90958
0.569084
3.47596
0.554007
4.02972
0.5452
4.66592
0.564813
4.72097
0.701698
4.4946
0.869278
5.12903
0.865849
4.85269
0.796738
4.11747
0.68361
3.38458
0.514342
2.64756
0.306837
1.86998
0.115278
1.2128
0.61654
0.00964801
-0.0524176
0.0426397
-0.124149
0.0952147
-0.0523912
0.259771
0.4504
0.370913
1.46607
0.418003
2.28044
0.429891
2.89769
0.43528
3.47057
0.428944
4.03606
0.42035
4.67451
0.421136
4.72018
0.499456
4.41628
0.613142
5.01534
0.607285
4.85855
0.541725
4.18303
0.452739
3.47356
0.33464
2.76565
0.192416
2.01221
0.0613986
1.34382
0.677938
0.0380925
-0.09051
0.0908744
-0.176931
0.120136
-0.0816528
0.167482
0.403054
0.241822