/*--------------------------------*- C++ -*----------------------------------*\
| =========                 |                                                 |
| \\      /  F ield         | OpenFOAM: The Open Source CFD Toolbox           |
|  \\    /   O peration     | Version:  v2012                                 |
|   \\  /    A nd           | Website:  www.openfoam.com                      |
|    \\/     M anipulation  |                                                 |
\*---------------------------------------------------------------------------*/
FoamFile
{
    version     2.0;
    format      ascii;
    class       volVectorField;
    location    "50";
    object      U;
}
// * * * * * * * * * * * * * * * * * * * * * * * * * * * * * * * * * * * * * //

dimensions      [0 1 -1 0 0 0 0];


internalField   nonuniform List<vector> 
2200
(
(0.878832 -0.0304148 0)
(1.00578 -0.0512832 0)
(1.00327 -0.0354085 0)
(1.00022 -0.0244547 0)
(0.999807 -0.0166857 0)
(1 -0.0107523 0)
(1.00003 -0.00688118 0)
(1.00002 -0.00423318 0)
(1 -0.00225681 0)
(1.00017 -0.000726231 0)
(1.00002 0.000996966 0)
(0.999914 0.0025289 0)
(0.999997 0.00448755 0)
(1.00001 0.00706161 0)
(1.00009 0.0108878 0)
(1.00001 0.0166985 0)
(1.00034 0.0244188 0)
(1.00348 0.0349494 0)
(1.00595 0.0513708 0)
(0.879011 0.0303164 0)
(0.712006 -0.032763 0)
(0.996629 -0.0630188 0)
(1.0333 -0.0561551 0)
(1.02491 -0.0464109 0)
(1.01594 -0.0361019 0)
(1.00967 -0.0263684 0)
(1.0059 -0.018122 0)
(1.00375 -0.0114351 0)
(1.00256 -0.00605205 0)
(1.00207 -0.0015343 0)
(1.00215 0.00260787 0)
(1.00264 0.0070292 0)
(1.00366 0.0122807 0)
(1.0058 0.0189017 0)
(1.00943 0.0271307 0)
(1.01546 0.0368546 0)
(1.02456 0.0473189 0)
(1.0331 0.0577802 0)
(0.996675 0.0631419 0)
(0.711786 0.0330074 0)
(0.535508 -0.0238974 0)
(0.969879 -0.0569511 0)
(1.05642 -0.0547457 0)
(1.05224 -0.0488127 0)
(1.0362 -0.040491 0)
(1.02442 -0.0323125 0)
(1.01589 -0.0240377 0)
(1.0104 -0.0161449 0)
(1.0072 -0.00888852 0)
(1.0056 -0.00228761 0)
(1.00538 0.00402591 0)
(1.00683 0.0105757 0)
(1.01013 0.0176222 0)
(1.01563 0.0253031 0)
(1.02416 0.0333155 0)
(1.03622 0.0413622 0)
(1.05227 0.0494033 0)
(1.05635 0.0534466 0)
(0.96922 0.0576197 0)
(0.534428 0.0239315 0)
(0.39223 -0.0136569 0)
(0.911741 -0.0464041 0)
(1.05745 -0.0469561 0)
(1.06946 -0.0442769 0)
(1.05487 -0.0381525 0)
(1.03935 -0.0315271 0)
(1.02751 -0.0247353 0)
(1.019 -0.017516 0)
(1.01363 -0.010022 0)
(1.01104 -0.00242443 0)
(1.01106 0.00513398 0)
(1.01348 0.0125361 0)
(1.0185 0.0198072 0)
(1.02681 0.0267155 0)
(1.03854 0.0330789 0)
(1.05393 0.0394726 0)
(1.06816 0.0455307 0)
(1.05561 0.0482517 0)
(0.909978 0.0469506 0)
(0.390028 0.0137726 0)
(0.307586 -0.00451318 0)
(0.846647 -0.032394 0)
(1.04947 -0.0399596 0)
(1.07957 -0.0382864 0)
(1.06816 -0.0336292 0)
(1.0516 -0.0280137 0)
(1.03833 -0.0226465 0)
(1.02813 -0.0166045 0)
(1.02108 -0.00971346 0)
(1.01718 -0.00212384 0)
(1.01678 0.00571089 0)
(1.0203 0.0130798 0)
(1.02726 0.0196042 0)
(1.03721 0.0252259 0)
(1.05027 0.0302209 0)
(1.06682 0.0355575 0)
(1.07791 0.0398972 0)
(1.04745 0.041596 0)
(0.843203 0.032909 0)
(0.303977 0.00471428 0)
(0.264109 9.45718e-05 0)
(0.788741 -0.0201073 0)
(1.033 -0.0315037 0)
(1.08334 -0.0321087 0)
(1.07725 -0.0288541 0)
(1.06082 -0.0239628 0)
(1.04716 -0.019501 0)
(1.03631 -0.0144174 0)
(1.02848 -0.00841045 0)
(1.02407 -0.0013757 0)
(1.02387 0.00598924 0)
(1.02775 0.0127892 0)
(1.0348 0.0183664 0)
(1.04525 0.0230078 0)
(1.05869 0.0269653 0)
(1.07489 0.0313916 0)
(1.0804 0.0341578 0)
(1.02928 0.0332393 0)
(0.782936 0.0207172 0)
(0.259078 0.000107453 0)
(0.240147 0.00106583 0)
(0.738215 -0.0123156 0)
(1.01379 -0.0250567 0)
(1.08412 -0.0268381 0)
(1.08291 -0.0245372 0)
(1.06767 -0.0204221 0)
(1.05412 -0.0164292 0)
(1.0433 -0.0119748 0)
(1.0352 -0.00657755 0)
(1.03028 -0.000244198 0)
(1.02972 0.0064137 0)
(1.03374 0.0122368 0)
(1.04144 0.0170145 0)
(1.05171 0.0209067 0)
(1.06496 0.0243962 0)
(1.07977 0.0279001 0)
(1.08029 0.0294996 0)
(1.00803 0.0271053 0)
(0.729481 0.0130947 0)
(0.233532 -0.000850375 0)
(0.225672 0.000943444 0)
(0.694858 -0.00808713 0)
(0.992472 -0.0208796 0)
(1.08188 -0.0233251 0)
(1.08675 -0.0215178 0)
(1.07333 -0.0179342 0)
(1.05982 -0.0141282 0)
(1.04922 -0.00978561 0)
(1.04128 -0.00492279 0)
(1.03636 0.000660863 0)
(1.03568 0.00659939 0)
(1.03933 0.0119088 0)
(1.04609 0.0161626 0)
(1.05616 0.0197078 0)
(1.06935 0.0227326 0)
(1.08209 0.0255562 0)
(1.07573 0.0265486 0)
(0.983612 0.0232654 0)
(0.682564 0.00906419 0)
(0.217194 -0.000726067 0)
(0.21609 0.000617142 0)
(0.659651 -0.00571531 0)
(0.972385 -0.0176799 0)
(1.07942 -0.0203165 0)
(1.09009 -0.018791 0)
(1.07806 -0.015785 0)
(1.06468 -0.0121498 0)
(1.05422 -0.00803304 0)
(1.04637 -0.00316411 0)
(1.04142 0.00221937 0)
(1.04062 0.00764457 0)
(1.0441 0.012241 0)
(1.0509 0.0160973 0)
(1.06034 0.0193569 0)
(1.07301 0.0221087 0)
(1.08389 0.0241641 0)
(1.07176 0.0247552 0)
(0.960274 0.0207909 0)
(0.642948 0.00698586 0)
(0.205275 -0.000353737 0)
(0.208738 0.000293717 0)
(0.630613 -0.00424545 0)
(0.952848 -0.0151449 0)
(1.07579 -0.018116 0)
(1.09296 -0.0168454 0)
(1.08265 -0.0139248 0)
(1.0693 -0.0104376 0)
(1.05885 -0.00633876 0)
(1.0511 -0.00175659 0)
(1.0461 0.00318693 0)
(1.04469 0.00815356 0)
(1.04735 0.0127267 0)
(1.05348 0.0163832 0)
(1.06291 0.0192282 0)
(1.07563 0.0216401 0)
(1.08463 0.0234785 0)
(1.06417 0.0234354 0)
(0.935251 0.0188185 0)
(0.608223 0.00581257 0)
(0.194985 1.81231e-05 0)
(0.2029 7.06784e-05 0)
(0.607356 -0.00320363 0)
(0.935118 -0.0126654 0)
(1.07286 -0.0157817 0)
(1.09625 -0.014689 0)
(1.08715 -0.0120285 0)
(1.0737 -0.00848716 0)
(1.06306 -0.00460963 0)
(1.05498 -1.64495e-05 0)
(1.04973 0.0050276 0)
(1.04854 0.00998423 0)
(1.05129 0.013938 0)
(1.05723 0.0170971 0)
(1.06626 0.0197184 0)
(1.07844 0.0217428 0)
(1.08536 0.0229472 0)
(1.05839 0.0224607 0)
(0.912619 0.0172127 0)
(0.578792 0.00510642 0)
(0.185707 0.000294205 0)
(0.198148 -4.56929e-06 0)
(0.588805 -0.00235569 0)
(0.919199 -0.0104245 0)
(1.06951 -0.0136657 0)
(1.09944 -0.0126442 0)
(1.092 -0.00992051 0)
(1.07838 -0.00649794 0)
(1.06746 -0.00262137 0)
(1.05927 0.00179774 0)
(1.05379 0.00646595 0)
(1.05143 0.0109622 0)
(1.05325 0.0149544 0)
(1.05892 0.0179348 0)
(1.06803 0.0200899 0)
(1.08046 0.0219844 0)
(1.08518 0.0229016 0)
(1.04892 0.021812 0)
(0.887896 0.0158928 0)
(0.551531 0.00468775 0)
(0.17653 0.000464017 0)
(0.194516 2.43006e-05 0)
(0.573983 -0.0015803 0)
(0.904691 -0.00818846 0)
(1.06686 -0.0112508 0)
(1.10305 -0.0102588 0)
(1.09691 -0.00765257 0)
(1.08319 -0.00412762 0)
(1.0718 -0.000388143 0)
(1.06293 0.00397553 0)
(1.05678 0.00886069 0)
(1.05473 0.0136438 0)
(1.05666 0.0169528 0)
(1.06212 0.0193675 0)
(1.07105 0.0211949 0)
(1.08259 0.0225779 0)
(1.08458 0.02308 0)
(1.04108 0.0214177 0)
(0.86558 0.0149209 0)
(0.527745 0.00446628 0)
(0.167908 0.000551321 0)
(0.192306 4.6595e-05 0)
(0.563237 -0.000823343 0)
(0.892885 -0.00606887 0)
(1.06393 -0.00901046 0)
(1.1063 -0.00790929 0)
(1.10186 -0.0051299 0)
(1.08801 -0.00158093 0)
(1.07627 0.00233603 0)
(1.06705 0.00675064 0)
(1.06044 0.0113282 0)
(1.05683 0.0153693 0)
(1.05782 0.0188924 0)
(1.06304 0.0210972 0)
(1.07212 0.0223921 0)
(1.08328 0.023439 0)
(1.08297 0.0234829 0)
(1.0291 0.0213026 0)
(0.840527 0.0141628 0)
(0.504169 0.00432356 0)
(0.159084 0.000582316 0)
(0.191314 9.45738e-05 0)
(0.555622 -0.000255947 0)
(0.882513 -0.00399591 0)
(1.06228 -0.00620479 0)
(1.1101 -0.00489459 0)
(1.10696 -0.00210928 0)
(1.09328 0.00157168 0)
(1.0811 0.00554793 0)
(1.07118 0.0100134 0)
(1.06353 0.0147558 0)
(1.06012 0.0189045 0)
(1.06127 0.0215616 0)
(1.06601 0.0231152 0)
(1.07451 0.0242619 0)
(1.08373 0.0246249 0)
(1.08063 0.0243168 0)
(1.01834 0.0215178 0)
(0.817706 0.0138324 0)
(0.482957 0.00434829 0)
(0.150729 0.000617473 0)
(0.191806 6.08482e-05 0)
(0.551217 0.000784159 0)
(0.87605 -0.00167537 0)
(1.06111 -0.00364965 0)
(1.11414 -0.00195991 0)
(1.11253 0.00127346 0)
(1.09876 0.00518408 0)
(1.08635 0.00938869 0)
(1.07602 0.0139163 0)
(1.06789 0.018367 0)
(1.06278 0.0218589 0)
(1.0619 0.0242465 0)
(1.06591 0.0256453 0)
(1.07436 0.026205 0)
(1.08339 0.0263568 0)
(1.07672 0.0254764 0)
(1.00387 0.0218992 0)
(0.791896 0.0137115 0)
(0.460726 0.00439447 0)
(0.141847 0.00063287 0)
(0.193735 0.000203813 0)
(0.551381 0.00148563 0)
(0.871003 0.000422569 0)
(1.06188 -0.000170856 0)
(1.11904 0.00192249 0)
(1.11839 0.00523445 0)
(1.10463 0.00946003 0)
(1.09158 0.0139822 0)
(1.08023 0.0187382 0)
(1.07051 0.0233585 0)
(1.06491 0.0269148 0)
(1.06475 0.0289094 0)
(1.06843 0.0294208 0)
(1.07591 0.0295717 0)
(1.08214 0.0289309 0)
(1.07152 0.0273862 0)
(0.990052 0.0230255 0)
(0.767723 0.0140293 0)
(0.439884 0.00462841 0)
(0.133176 0.000673341 0)
(0.197719 0.000655635 0)
(0.553926 0.00226744 0)
(0.871116 0.00333119 0)
(1.06373 0.0029838 0)
(1.1245 0.00559717 0)
(1.12495 0.0096102 0)
(1.1107 0.0143858 0)
(1.09705 0.0192379 0)
(1.0851 0.0241467 0)
(1.07493 0.028657 0)
(1.06764 0.0317182 0)
(1.06435 0.0327509 0)
(1.06631 0.0331453 0)
(1.07372 0.0324737 0)
(1.08034 0.031861 0)
(1.06514 0.0297057 0)
(0.971858 0.0243466 0)
(0.739571 0.0145879 0)
(0.416708 0.00493661 0)
(0.123476 0.000712749 0)
(0.204085 0.000862658 0)
(0.560652 0.00339221 0)
(0.874724 0.00572865 0)
(1.06834 0.00738216 0)
(1.13118 0.0107273 0)
(1.13235 0.0149778 0)
(1.11761 0.0201143 0)
(1.10283 0.0255588 0)
(1.08946 0.031053 0)
(1.07719 0.0359391 0)
(1.06836 0.038942 0)
(1.06569 0.0399412 0)
(1.06821 0.039477 0)
(1.07433 0.0383531 0)
(1.07677 0.0360572 0)
(1.05656 0.0327411 0)
(0.953781 0.0262859 0)
(0.712596 0.0155657 0)
(0.394075 0.00536807 0)
(0.113658 0.000765005 0)
(0.212289 0.00103132 0)
(0.571701 0.00470303 0)
(0.882721 0.00881319 0)
(1.07517 0.0117776 0)
(1.13887 0.0161064 0)
(1.14082 0.0211846 0)
(1.12526 0.0271858 0)
(1.10946 0.0330195 0)
(1.09485 0.0387975 0)
(1.08133 0.0436348 0)
(1.07068 0.0463819 0)
(1.06448 0.0464093 0)
(1.06343 0.0448045 0)
(1.06924 0.0422259 0)
(1.07261 0.0405667 0)
(1.04634 0.0363727 0)
(0.930392 0.0285692 0)
(0.680284 0.0168447 0)
(0.367732 0.00586132 0)
(0.102341 0.000825204 0)
(0.22446 0.00135372 0)
(0.589667 0.00665557 0)
(0.897127 0.0132253 0)
(1.0856 0.0180818 0)
(1.14836 0.02333 0)
(1.15013 0.0290041 0)
(1.13341 0.0357679 0)
(1.11572 0.0426424 0)
(1.09854 0.0492488 0)
(1.08199 0.0545 0)
(1.06887 0.0563895 0)
(1.06316 0.055552 0)
(1.06396 0.0533638 0)
(1.0686 0.0507587 0)
(1.06602 0.0464634 0)
(1.03321 0.0407649 0)
(0.906792 0.0315405 0)
(0.648495 0.0183577 0)
(0.341357 0.00641737 0)
(0.0907596 0.000870274 0)
(0.24007 0.001927 0)
(0.613355 0.00851992 0)
(0.918261 0.0180023 0)
(1.10024 0.0251965 0)
(1.15972 0.0320833 0)
(1.16125 0.0390428 0)
(1.14298 0.0471912 0)
(1.12368 0.0547368 0)
(1.10464 0.0614536 0)
(1.08582 0.0657843 0)
(1.07038 0.0668294 0)
(1.06109 0.0650561 0)
(1.05755 0.0616709 0)
(1.05965 0.0570529 0)
(1.0585 0.0529358 0)
(1.01746 0.0460875 0)
(0.876053 0.034823 0)
(0.609506 0.0201394 0)
(0.310058 0.0070268 0)
(0.0774001 0.000887847 0)
(0.261926 0.00278674 0)
(0.64631 0.0123315 0)
(0.946779 0.0248783 0)
(1.11949 0.0349408 0)
(1.17423 0.043179 0)
(1.17436 0.0521329 0)
(1.15377 0.0612025 0)
(1.13156 0.0697279 0)
(1.10888 0.0769431 0)
(1.08632 0.0813898 0)
(1.06774 0.0813405 0)
(1.05756 0.0774825 0)
(1.05525 0.0727161 0)
(1.05743 0.0675225 0)
(1.04759 0.0610561 0)
(0.997871 0.0519002 0)
(0.844501 0.0389019 0)
(0.57072 0.0222729 0)
(0.278364 0.007651 0)
(0.0639175 0.000854276 0)
(0.293407 0.00371694 0)
(0.69246 0.0155758 0)
(0.986077 0.0332575 0)
(1.14521 0.0467584 0)
(1.19198 0.0575824 0)
(1.18979 0.0684497 0)
(1.1659 0.0791865 0)
(1.14089 0.0882907 0)
(1.11563 0.095161 0)
(1.09019 0.0981061 0)
(1.06814 0.0959777 0)
(1.05422 0.0913782 0)
(1.04696 0.0846263 0)
(1.04486 0.0772605 0)
(1.03572 0.0699377 0)
(0.974759 0.0592813 0)
(0.803696 0.0433686 0)
(0.522043 0.0246377 0)
(0.239891 0.00812966 0)
(0.0485366 0.000763577 0)
(0.329774 0.00707038 0)
(0.750397 0.0246726 0)
(1.03463 0.0463275 0)
(1.17663 0.0639836 0)
(1.21372 0.0766293 0)
(1.20694 0.0908148 0)
(1.17816 0.102475 0)
(1.14827 0.111688 0)
(1.11743 0.117906 0)
(1.08649 0.119584 0)
(1.06135 0.116321 0)
(1.04645 0.108117 0)
(1.04094 0.0997692 0)
(1.03946 0.0913317 0)
(1.01893 0.0811798 0)
(0.945622 0.0674975 0)
(0.760561 0.0490194 0)
(0.473023 0.0273602 0)
(0.201577 0.00852028 0)
(0.0340519 0.000635571 0)
(0.409719 0.010695 0)
(0.837745 0.0357693 0)
(1.09977 0.0673271 0)
(1.21579 0.0896406 0)
(1.23941 0.105161 6.45961e-34)
(1.22548 0.120901 -2.90492e-34)
(1.1901 0.132463 0)
(1.15535 0.140458 0)
(1.12067 0.144423 0)
(1.0871 0.143224 0)
(1.05824 0.135572 0)
(1.03956 0.126125 0)
(1.02885 0.1152 0)
(1.02109 0.104192 0)
(0.999898 0.0928256 0)
(0.911698 0.0767892 0)
(0.704583 0.0538074 0)
(0.408989 0.0291339 0)
(0.152826 0.00822674 0)
(0.0172434 0.000724581 0)
(0.480959 0.0259498 4.81475e-20)
(0.939862 0.0595266 -3.64366e-20)
(1.17022 0.10153 0)
(1.25623 0.127896 2.8043e-20)
(1.26679 0.143205 -2.27404e-20)
(1.2433 0.161061 3.06494e-34)
(1.20099 0.17081 0)
(1.16089 0.176739 1.62605e-20)
(1.12037 0.178486 -5.33576e-20)
(1.07954 0.174327 1.0882e-20)
(1.04604 0.164381 0)
(1.02591 0.150686 -2.75304e-20)
(1.01723 0.13755 -3.29923e-20)
(1.01064 0.125554 5.7709e-20)
(0.969737 0.109923 -4.55805e-20)
(0.857338 0.0874879 0)
(0.629383 0.0600049 -1.645e-20)
(0.332124 0.0297734 0)
(0.101624 0.00804049 -9.06725e-20)
(6.48712e-05 0.000633923 1.06859e-19)
(0.517201 0.0534873 -6.29252e-21)
(1.00394 0.102621 1.09963e-19)
(1.21959 0.151503 -6.42236e-21)
(1.28942 0.175428 -6.98814e-20)
(1.29094 0.192568 -4.82069e-20)
(1.25842 0.208419 7.84076e-20)
(1.20973 0.215324 0)
(1.16397 0.218609 0)
(1.11793 0.217232 8.49383e-20)
(1.0736 0.209381 0)
(1.03713 0.196272 9.95788e-20)
(1.01204 0.181154 2.95395e-20)
(0.99475 0.166614 4.0267e-22)
(0.974576 0.149549 -6.29403e-20)
(0.931618 0.13171 0)
(0.80667 0.106503 0)
(0.565099 0.0696987 -2.68848e-19)
(0.276438 0.0325389 6.75345e-19)
(0.074302 0.00808237 -3.99352e-19)
(-0.00955924 -0.000463722 -4.70912e-19)
(0.525048 0.0761403 -6.38842e-20)
(1.04199 0.159383 2.42691e-20)
(1.25651 0.211978 1.30772e-20)
(1.31564 0.234536 1.22039e-19)
(1.30978 0.249927 1.43661e-20)
(1.26983 0.261352 -2.046e-19)
(1.21559 0.264346 6.96433e-20)
(1.16465 0.26427 0)
(1.11358 0.259888 -1.79821e-19)
(1.06405 0.250167 1.59419e-19)
(1.0206 0.233229 -2.68845e-19)
(0.99106 0.21452 1.26015e-19)
(0.974175 0.195798 -8.16509e-20)
(0.957453 0.180748 1.83911e-19)
(0.901797 0.159778 0)
(0.767653 0.125507 -6.7283e-20)
(0.530037 0.0811618 0)
(0.264546 0.0367661 3.71451e-19)
(0.0723431 0.01023 -8.78425e-19)
(-0.0102138 -0.0016739 5.5079e-19)
(0.520414 0.107878 1.80581e-19)
(1.06131 0.215721 -7.88988e-20)
(1.27775 0.276565 -1.66809e-20)
(1.33252 0.298576 0)
(1.32161 0.312005 -9.02178e-20)
(1.27638 0.318326 1.11254e-19)
(1.21741 0.316529 -7.4619e-20)
(1.16127 0.312437 0)
(1.10453 0.303897 1.27832e-19)
(1.04825 0.288631 -1.12059e-19)
(1.00062 0.266926 2.33144e-19)
(0.969209 0.246897 0)
(0.948023 0.229483 -1.73619e-19)
(0.92182 0.207996 9.78149e-20)
(0.870061 0.184848 2.46822e-19)
(0.741283 0.149688 -2.17193e-19)
(0.514888 0.0985379 3.44981e-19)
(0.264811 0.0479743 -7.64843e-19)
(0.0812134 0.0141558 4.82845e-19)
(-0.00568857 -0.00140521 -6.03919e-19)
(0.509327 0.132172 -6.41708e-20)
(1.07002 0.27006 4.59897e-20)
(1.28909 0.342714 -5.53852e-20)
(1.34158 0.364302 1.09571e-19)
(1.32703 0.375322 -1.03039e-19)
(1.27799 0.37665 3.5331e-20)
(1.21542 0.370418 3.6079e-21)
(1.15536 0.362297 -1.45396e-19)
(1.09486 0.349838 -1.34201e-19)
(1.03576 0.330978 -2.40891e-19)
(0.986684 0.308342 -5.01442e-19)
(0.950115 0.28449 -1.5448e-19)
(0.923949 0.261444 2.29068e-21)
(0.903066 0.242284 -3.3533e-19)
(0.844979 0.217063 -5.94e-21)
(0.715848 0.172975 3.16313e-19)
(0.502939 0.1157 -9.54267e-20)
(0.269708 0.0602957 -5.52971e-20)
(0.0932726 0.0201527 0)
(0.000998792 -9.53362e-05 1.28557e-18)
(0.492626 0.152952 0)
(1.06451 0.319498 -4.66011e-21)
(1.29123 0.405683 0)
(1.3437 0.428163 -1.27843e-20)
(1.32661 0.438145 9.99746e-20)
(1.27509 0.435136 -8.21463e-20)
(1.20987 0.424504 8.15614e-20)
(1.14669 0.412014 2.3862e-19)
(1.0827 0.394961 -7.46636e-20)
(1.0189 0.371124 1.19168e-19)
(0.961327 0.342394 2.69616e-19)
(0.921992 0.315072 3.36746e-19)
(0.899334 0.293608 -2.02858e-19)
(0.867399 0.271472 3.63147e-19)
(0.815422 0.242674 -2.87794e-19)
(0.697235 0.200788 0)
(0.499333 0.137668 -7.2481e-19)
(0.281286 0.076289 9.75492e-19)
(0.108805 0.0290835 7.2818e-20)
(0.00927936 0.00241758 -1.35974e-18)
(0.478524 0.173282 -5.10721e-21)
(1.05702 0.368009 -1.51888e-20)
(1.28862 0.466839 8.08691e-20)
(1.34109 0.490205 -9.35025e-20)
(1.32189 0.498985 8.25138e-20)
(1.26853 0.492024 -7.97696e-20)
(1.20135 0.477691 1.61863e-19)
(1.13562 0.461499 -7.18352e-20)
(1.068 0.440629 -3.01503e-19)
(1.00028 0.41375 -6.8067e-23)
(0.943204 0.382978 -2.92955e-19)
(0.903464 0.353191 -3.62149e-19)
(0.872133 0.328908 2.23868e-19)
(0.850079 0.305031 -1.30681e-19)
(0.792506 0.276953 3.12778e-19)
(0.676286 0.224484 0)
(0.490471 0.159193 -4.49937e-19)
(0.287016 0.0917279 6.64509e-19)
(0.120224 0.0384456 1.25804e-18)
(0.0161498 0.00524402 -1.47976e-18)
(0.464649 0.191081 -4.806e-20)
(1.04487 0.412576 1.7947e-20)
(1.28179 0.524284 -4.97816e-20)
(1.33461 0.549056 9.69152e-20)
(1.31368 0.557411 1.192e-20)
(1.25894 0.547215 -1.56759e-19)
(1.19014 0.529478 -9.37063e-20)
(1.12223 0.509666 -9.15168e-20)
(1.05252 0.484984 -1.69856e-19)
(0.983409 0.453632 2.73546e-19)
(0.921705 0.417164 2.96243e-19)
(0.875489 0.386093 5.74712e-19)
(0.848837 0.360977 0)
(0.814281 0.33413 6.40279e-21)
(0.764656 0.300854 -8.58989e-19)
(0.657603 0.252654 2.00696e-19)
(0.485466 0.180894 9.73172e-19)
(0.293165 0.108794 -2.87155e-19)
(0.130012 0.0483979 5.97324e-19)
(0.021866 0.00833453 -4.98138e-20)
(0.455029 0.209415 5.91077e-21)
(1.03397 0.455724 4.0071e-20)
(1.27296 0.579505 -2.26371e-20)
(1.32559 0.605848 1.09369e-19)
(1.30305 0.613236 -1.68191e-19)
(1.24714 0.599833 1.5595e-19)
(1.17713 0.579182 9.70436e-20)
(1.10776 0.5563 2.73767e-19)
(1.0358 0.528218 3.41559e-19)
(0.962181 0.493647 -3.15351e-19)
(0.897591 0.455509 0)
(0.854045 0.422309 -2.17118e-19)
(0.821542 0.39203 2.49276e-19)
(0.797002 0.365066 3.14595e-19)
(0.74249 0.33283 -1.81884e-19)
(0.637222 0.273705 -4.43923e-19)
(0.474715 0.201549 -1.32495e-19)
(0.293891 0.124094 -1.67689e-21)
(0.135358 0.0572065 0)
(0.0256048 0.0109503 0)
(0.447033 0.225762 -6.63086e-20)
(1.02206 0.495926 0)
(1.26209 0.631012 -8.35005e-21)
(1.31441 0.659234 -9.51735e-21)
(1.29062 0.666242 1.9031e-19)
(1.23384 0.650252 -4.84873e-20)
(1.16289 0.626896 9.85269e-20)
(1.09215 0.600975 -1.85414e-19)
(1.01845 0.570047 2.58943e-19)
(0.943737 0.532354 -1.03095e-19)
(0.878536 0.490599 1.69597e-19)
(0.830752 0.4527 6.88227e-19)
(0.798089 0.422507 1.42575e-20)
(0.76251 0.391143 -3.27865e-19)
(0.713853 0.352174 6.07569e-19)
(0.617107 0.29962 4.10899e-21)
(0.464387 0.220645 1.4175e-19)
(0.290034 0.1378 -6.76043e-19)
(0.135294 0.0641781 6.97129e-19)
(0.0271542 0.0127307 -8.2139e-19)
(0.440507 0.243747 3.60597e-23)
(1.01085 0.534425 0)
(1.25034 0.680159 0)
(1.302 0.710374 -4.99417e-21)
(1.27706 0.71646 -5.70328e-20)
(1.21955 0.697831 7.33991e-20)
(1.14789 0.67214 -1.843e-19)
(1.07607 0.643866 0)
(1.00044 0.610187 -3.81711e-19)
(0.922783 0.569483 4.56339e-19)
(0.853768 0.525016 4.82598e-19)
(0.804882 0.484389 -2.52607e-19)
(0.770907 0.449532 -3.05461e-19)
(0.745189 0.417557 7.16132e-19)
(0.691401 0.380673 -2.15817e-19)
(0.595234 0.315611 -2.57712e-19)
(0.448932 0.237411 -1.5424e-19)
(0.283455 0.148493 -7.2907e-19)
(0.131765 0.069278 1.06572e-19)
(0.0269642 0.0136766 8.86406e-19)
(0.436341 0.261937 -3.38948e-20)
(1.00022 0.570865 -4.37036e-20)
(1.23775 0.725997 2.3621e-20)
(1.28862 0.758069 -1.77878e-22)
(1.26284 0.763775 -5.64719e-20)
(1.20472 0.743088 1.20079e-19)
(1.13239 0.715307 0)
(1.05952 0.684631 1.11692e-19)
(0.982804 0.648822 -8.80696e-20)
(0.904484 0.606118 7.60243e-19)
(0.833786 0.558619 -1.10014e-19)
(0.782619 0.513881 1.25128e-19)
(0.748367 0.477 0)
(0.709754 0.440102 -3.87697e-19)
(0.663219 0.394179 4.69456e-19)
(0.573919 0.337077 0)
(0.43583 0.250731 -3.32399e-19)
(0.273772 0.157871 9.7737e-19)
(0.126537 0.0718985 1.15342e-19)
(0.0252226 0.014257 -1.09012e-18)
(0.433873 0.278877 -8.72468e-20)
(0.990325 0.605438 1.12033e-19)
(1.22503 0.769444 0)
(1.27494 0.803507 8.58473e-21)
(1.24821 0.808414 0)
(1.18951 0.785588 -1.53933e-19)
(1.11672 0.755913 0)
(1.04326 0.723446 0)
(0.965158 0.685575 -1.16033e-19)
(0.883671 0.640355 -7.22556e-19)
(0.809595 0.589365 -8.91515e-19)
(0.756291 0.542118 1.4621e-19)
(0.718647 0.500525 5.27287e-19)
(0.692432 0.461628 4.26704e-19)
(0.64092 0.418916 -1.50593e-18)
(0.55208 0.346986 -6.04282e-19)
(0.41718 0.261931 3.53866e-19)
(0.261884 0.162982 0)
(0.119362 0.0730033 9.90798e-19)
(0.0228936 0.0139772 -1.17404e-18)
(0.432282 0.294629 1.05713e-19)
(0.981068 0.638299 -1.31357e-19)
(1.21225 0.809912 0)
(1.26097 0.845661 -1.10133e-20)
(1.23354 0.850308 2.36316e-21)
(1.17439 0.825863 0)
(1.10121 0.794541 5.64525e-20)
(1.02701 0.760187 7.70142e-20)
(0.947771 0.720844 -2.18508e-19)
(0.865229 0.674281 9.58203e-20)
(0.789596 0.621214 0)
(0.733167 0.570341 6.05316e-19)
(0.695269 0.525131 4.98749e-21)
(0.656218 0.479993 2.30118e-19)
(0.612018 0.426046 2.73365e-19)
(0.529609 0.363576 0)
(0.401769 0.26906 -5.78064e-19)
(0.248902 0.166324 1.13404e-18)
(0.11177 0.072712 -1.19928e-18)
(0.0203499 0.0133033 2.52736e-18)
(0.431037 0.309661 0)
(0.972148 0.669349 0)
(1.19973 0.848089 -6.35696e-20)
(1.24718 0.885715 0)
(1.21892 0.889701 0)
(1.15935 0.863551 -1.28182e-19)
(1.08596 0.830731 5.77556e-20)
(1.01132 0.795034 1.75908e-20)
(0.930813 0.754161 -5.00302e-20)
(0.845547 0.705648 0)
(0.766608 0.64981 -1.35533e-19)
(0.707009 0.595378 -4.93733e-19)
(0.664998 0.545038 -5.94507e-19)
(0.637498 0.496542 -2.38976e-19)
(0.589167 0.44633 2.96035e-19)
(0.507254 0.366016 -6.97834e-19)
(0.381336 0.273876 1.2437e-18)
(0.235831 0.166179 2.27296e-21)
(0.104151 0.0713794 -1.14904e-18)
(0.0181751 0.0124498 -1.7038e-19)
(0.429964 0.324233 0)
(0.963991 0.699255 -1.08092e-19)
(1.18751 0.883759 7.85219e-20)
(1.23348 0.92278 0)
(1.20464 0.926591 0)
(1.14479 0.899175 2.5728e-19)
(1.07115 0.865097 0)
(0.99583 0.827935 0)
(0.914211 0.786074 -4.78609e-19)
(0.827521 0.736903 1.32025e-19)
(0.745715 0.679829 -1.20132e-18)
(0.683216 0.62181 0)
(0.640994 0.567678 -6.44773e-19)
(0.599505 0.512244 1.06218e-20)
(0.558093 0.445907 -9.50951e-19)
(0.48356 0.376063 3.75478e-19)
(0.366562 0.272787 1.54398e-21)
(0.224124 0.16352 -1.3092e-18)
(0.0980122 0.0685454 6.1876e-19)
(0.0155622 0.0109367 1.82265e-19)
(0.428926 0.33845 0)
(0.956009 0.727291 -1.51739e-19)
(1.17565 0.917324 8.30526e-20)
(1.22023 0.957961 1.04351e-19)
(1.19067 0.961166 -1.34724e-20)
(1.13047 0.932403 2.57811e-20)
(1.05674 0.897182 -3.49441e-20)
(0.981124 0.859089 4.60528e-19)
(0.89843 0.816175 5.11976e-19)
(0.809429 0.765614 1.00593e-18)
(0.725075 0.706855 9.98152e-19)
(0.658402 0.645939 1.75333e-19)
(0.608709 0.58596 9.27686e-19)
(0.578438 0.524622 5.7279e-19)
(0.532743 0.461674 6.82664e-19)
(0.460261 0.36815 -4.10875e-19)
(0.346372 0.26707 -4.77688e-19)
(0.216003 0.154448 5.60393e-19)
(0.0976154 0.0704815 -3.32026e-19)
(0.0192247 0.0170393 5.89772e-19)
(0.428012 0.352213 2.15035e-19)
(0.948854 0.754423 2.37448e-19)
(1.16418 0.948795 4.86382e-20)
(1.20721 0.990449 1.61661e-20)
(1.17719 0.993507 9.93988e-21)
(1.11683 0.963761 -7.14142e-20)
(1.043 0.927624 3.36956e-20)
(0.96688 0.888464 -2.02383e-20)
(0.883265 0.844958 -5.95165e-19)
(0.792844 0.794377 -1.09152e-18)
(0.704493 0.734821 6.93096e-20)
(0.633942 0.670677 0)
(0.584641 0.608188 0)
(0.536949 0.540172 -2.98593e-19)
(0.496418 0.453463 -1.11655e-18)
(0.433149 0.367985 8.85021e-19)
(0.338055 0.247002 5.22444e-19)
(0.22339 0.135884 0)
(0.111289 0.0444045 1.0612e-18)
(0.0128545 -0.00843834 -6.2979e-19)
(0.427114 0.365426 -1.14004e-19)
(0.941662 0.779479 1.00933e-19)
(1.15308 0.978291 -1.17626e-19)
(1.19478 1.02127 -9.38503e-20)
(1.16413 1.02371 -1.24618e-20)
(1.10354 0.992905 -2.28043e-20)
(1.02977 0.95595 0)
(0.953541 0.916235 -5.78388e-19)
(0.869032 0.872089 7.30549e-20)
(0.776421 0.820557 0)
(0.68598 0.760363 0)
(0.6105 0.695894 1.11715e-19)
(0.549699 0.627123 1.50084e-19)
(0.511934 0.550143 -3.22306e-19)
(0.464615 0.467724 8.01514e-19)
(0.400284 0.345027 -9.64336e-19)
(0.310893 0.22416 -1.11762e-18)
(0.231821 0.116993 9.896e-19)
(0.16826 0.0867389 -3.77707e-19)
(0.113107 0.0796063 2.19819e-19)
(0.426238 0.37784 1.43894e-19)
(0.935236 0.803806 0)
(1.14239 1.006 0)
(1.18263 1.04965 -2.55677e-20)
(1.15166 1.05197 2.06991e-20)
(1.09105 1.02039 -2.06992e-20)
(1.01734 0.982807 1.492e-19)
(0.940747 0.942353 5.92109e-19)
(0.855437 0.897895 1.07924e-18)
(0.761711 0.846809 -8.20189e-20)
(0.667262 0.786726 1.6943e-19)
(0.587049 0.719427 -9.9884e-19)
(0.527005 0.650208 -9.94852e-19)
(0.46584 0.56987 -1.72904e-19)
(0.414416 0.455247 0)
(0.35871 0.343583 -6.918e-21)
(0.286428 0.155867 6.15354e-19)
(0.260505 0.0157813 -1.03585e-18)
(0.223517 -0.0906784 7.87519e-19)
(0.0850433 -0.0968259 6.52879e-19)
(0.42522 0.389843 -3.18236e-19)
(0.928517 0.825966 -1.43786e-19)
(1.13197 1.03196 6.98271e-21)
(1.17103 1.0768 5.54911e-20)
(1.13952 1.07856 0)
(1.07873 1.0462 -7.39954e-20)
(1.00514 1.00814 -2.14396e-19)
(0.928501 0.967541 -1.7066e-21)
(0.842467 0.922895 -5.65479e-19)
(0.746653 0.871357 -8.04617e-20)
(0.65023 0.811481 7.47347e-20)
(0.565082 0.74699 8.77409e-19)
(0.489053 0.673416 9.70899e-19)
(0.435571 0.581136 1.68293e-19)
(0.375207 0.4798 8.60322e-19)
(0.289763 0.311371 0)
(0.170288 0.141581 0)
(0.00214876 0.202457 7.13021e-19)
(-0.0778058 0.629968 -2.95349e-20)
(0.00721922 1.53712 -8.78147e-19)
(0.424252 0.401139 1.75998e-19)
(0.922637 0.847898 4.0229e-19)
(1.12194 1.05669 -5.50145e-19)
(1.15958 1.10212 2.74092e-19)
(1.12777 1.10399 -6.62267e-21)
(1.06698 1.07123 -2.72122e-20)
(0.993446 1.03299 0)
(0.916454 0.992184 -4.93471e-19)
(0.829702 0.947861 0)
(0.732928 0.897474 1.13355e-18)
(0.632202 0.838813 -9.08451e-20)
(0.541366 0.772638 1.01863e-19)
(0.467964 0.70173 1.11073e-18)
(0.382062 0.616981 -3.64862e-19)
(0.283766 0.474238 -4.37864e-19)
(0.195826 0.366755 0)
(0.0865727 0.499636 0)
(0.0259927 1.33293 0)
(0.0724511 2.46338 -4.05015e-19)
(0.0997956 2.91084 -2.49323e-19)
(0.422906 0.411866 0)
(0.916311 0.867469 0)
(1.11216 1.07975 2.00916e-19)
(1.14874 1.12645 -2.22394e-19)
(1.11639 1.12798 9.70138e-20)
(1.0554 1.09481 3.39551e-20)
(0.981961 1.05655 2.75931e-20)
(0.905014 1.01618 -2.14833e-20)
(0.817766 0.972401 7.96465e-20)
(0.718865 0.922362 -1.3009e-18)
(0.616131 0.864819 1.64706e-19)
(0.521412 0.8047 8.75871e-19)
(0.427263 0.734403 -1.10662e-18)
(0.348986 0.631654 -1.21453e-18)
(0.266883 0.53498 4.08846e-19)
(0.189651 0.670449 0)
(0.121473 1.56016 5.6562e-19)
(0.123038 2.69388 6.19858e-19)
(0.131081 3.08816 -6.92978e-19)
(0.122798 3.22231 7.43795e-19)
(0.42165 0.422301 0)
(0.910908 0.88706 3.57249e-19)
(1.10281 1.10176 -5.0348e-20)
(1.13808 1.149 3.13855e-19)
(1.10545 1.1509 -1.01832e-19)
(1.04451 1.11767 0)
(0.971168 1.07958 0)
(0.893939 1.03945 0)
(0.806049 0.996549 4.48857e-19)
(0.706507 0.948385 6.00595e-20)
(0.600021 0.893175 0)
(0.498719 0.832122 -8.71105e-19)
(0.413784 0.766308 0)
(0.298417 0.680885 8.69281e-19)
(0.204672 0.744943 -5.85864e-19)
(0.15382 1.46257 -4.71288e-19)
(0.156246 2.68164 -1.10146e-18)
(0.178198 3.12676 -5.80717e-19)
(0.169014 3.26718 -7.88402e-19)
(0.155177 3.30743 5.93403e-19)
(0.420119 0.431756 -1.25019e-19)
(0.904938 0.904111 1.54183e-20)
(1.09368 1.12214 -5.61501e-20)
(1.12809 1.17077 -2.42281e-19)
(1.09493 1.17248 0)
(1.03381 1.13915 0)
(0.960565 1.10138 0)
(0.883465 1.06211 3.44151e-20)
(0.795318 1.0203 -5.67367e-19)
(0.693922 0.973308 0)
(0.585898 0.920283 0)
(0.48417 0.867355 0)
(0.371807 0.80235 0)
(0.305725 0.772946 6.35083e-19)
(0.270588 1.16251 1.56134e-18)
(0.247659 2.38606 4.62103e-19)
(0.261608 3.08309 9.31148e-19)
(0.256199 3.28271 -7.13731e-19)
(0.207449 3.34838 2.63674e-19)
(0.175027 3.36112 0)
(0.418712 0.440962 1.28823e-19)
(0.899808 0.922035 -7.94665e-19)
(1.08479 1.14227 -2.13188e-19)
(1.118 1.19141 -4.67579e-20)
(1.08462 1.19373 2.3667e-20)
(1.02361 1.16058 -7.9332e-20)
(0.950532 1.12323 -3.1702e-21)
(0.873215 1.08446 -3.84462e-19)
(0.784512 1.04388 0)
(0.682984 0.999326 -7.60217e-20)
(0.572615 0.949652 6.91563e-20)
(0.464331 0.895119 0)
(0.37496 0.844225 0)
(0.320027 0.960875 -7.948e-19)
(0.272632 1.85518 9.81229e-20)
(0.268909 2.94367 -3.46882e-19)
(0.291659 3.2868 7.24613e-19)
(0.263945 3.38521 5.25001e-19)
(0.198473 3.40965 -7.13211e-19)
(0.173745 3.41925 3.53581e-19)
(0.416687 0.450382 2.53703e-19)
(0.893304 0.938512 7.75505e-19)
(1.07527 1.16239 2.55853e-19)
(1.10782 1.21304 0)
(1.07397 1.21515 0)
(1.01287 1.18191 6.19601e-20)
(0.93998 1.14497 7.00675e-20)
(0.862997 1.10721 3.42846e-19)
(0.774469 1.06796 2.22572e-20)
(0.671672 1.02512 9.7289e-19)
(0.560598 0.978085 -1.14842e-18)
(0.449488 0.929613 0)
(0.372495 0.92342 0)
(0.333915 1.32914 -5.41625e-19)
(0.334396 2.48943 -6.51107e-19)
(0.377751 3.19772 0)
(0.402234 3.36867 -7.323e-19)
(0.332239 3.43138 4.94197e-20)
(0.262948 3.4762 3.43083e-19)
(0.240487 3.5015 -1.12965e-19)
(0.414596 0.460157 -4.83132e-19)
(0.887285 0.958094 -3.72599e-19)
(1.0651 1.18414 0)
(1.09647 1.23499 0)
(1.06256 1.23776 0)
(1.00178 1.2046 0)
(0.929294 1.16795 -8.24074e-20)
(0.852343 1.13055 3.01526e-19)
(0.763568 1.09252 0)
(0.661462 1.05224 -8.85877e-19)
(0.549866 1.00881 2.05972e-18)
(0.440035 0.96913 8.40216e-20)
(0.390087 1.04385 1.11852e-19)
(0.386435 1.749 8.82869e-19)
(0.4003 2.9012 -4.74691e-19)
(0.438317 3.31948 0)
(0.421553 3.44241 2.05036e-19)
(0.336058 3.53077 9.17398e-20)
(0.260688 3.59452 1.49941e-19)
(0.185354 3.57397 -1.30335e-20)
(0.411586 0.470421 2.30074e-19)
(0.879033 0.975885 -3.81531e-19)
(1.05377 1.20619 0)
(1.08469 1.25865 -6.83907e-20)
(1.0504 1.26085 2.34277e-19)
(0.989663 1.22732 0)
(0.917627 1.19091 0)
(0.84142 1.15446 -5.23498e-19)
(0.753472 1.11767 -5.68479e-20)
(0.650925 1.07915 8.68677e-19)
(0.536202 1.03787 -9.78894e-19)
(0.4467 1.01746 5.70776e-19)
(0.407664 1.22999 0)
(0.422369 2.18745 -4.68146e-19)
(0.465102 3.14553 3.07045e-19)
(0.528719 3.42273 1.92216e-19)
(0.520689 3.5189 0)
(0.457925 3.60028 -3.80357e-20)