/*--------------------------------*- C++ -*----------------------------------*\
| =========                 |                                                 |
| \\      /  F ield         | OpenFOAM: The Open Source CFD Toolbox           |
|  \\    /   O peration     | Version:  v2012                                 |
|   \\  /    A nd           | Website:  www.openfoam.com                      |
|    \\/     M anipulation  |                                                 |
\*---------------------------------------------------------------------------*/
FoamFile
{
    version     2.0;
    format      ascii;
    class       volScalarField;
    location    "63";
    object      p;
}
// * * * * * * * * * * * * * * * * * * * * * * * * * * * * * * * * * * * * * //

dimensions      [0 2 -2 0 0 0 0];


internalField   nonuniform List<scalar> 
2200
(
0.772282
0.750784
0.734878
0.719213
0.704606
0.692094
0.681749
0.67366
0.667977
0.665052
0.665575
0.669416
0.675765
0.684334
0.695021
0.707798
0.722595
0.738529
0.754576
0.776074
0.704697
0.701439
0.698517
0.694403
0.688947
0.68248
0.675872
0.669933
0.665446
0.663091
0.663591
0.666936
0.67214
0.678619
0.685616
0.692376
0.698043
0.702135
0.704981
0.708345
0.66476
0.664981
0.667043
0.668393
0.668789
0.667944
0.665976
0.663315
0.660794
0.659334
0.659916
0.66239
0.665702
0.668946
0.671292
0.672296
0.672033
0.671043
0.66941
0.669161
0.642266
0.643718
0.646317
0.648773
0.651222
0.65325
0.654416
0.654667
0.654322
0.654065
0.654747
0.656162
0.657382
0.657793
0.657122
0.655454
0.653299
0.651116
0.648506
0.647102
0.627896
0.629869
0.632689
0.635531
0.638399
0.641242
0.643714
0.645593
0.646846
0.647689
0.648463
0.648974
0.648768
0.647688
0.64585
0.643494
0.640952
0.638223
0.635425
0.633503
0.620515
0.622113
0.624321
0.62686
0.629539
0.632222
0.634836
0.637284
0.639336
0.640887
0.641804
0.641871
0.641078
0.639591
0.637719
0.635598
0.633287
0.63095
0.628853
0.627279
0.617066
0.618088
0.619362
0.621235
0.623389
0.625571
0.627786
0.63011
0.63237
0.634264
0.635354
0.635431
0.634703
0.633538
0.63217
0.63063
0.628944
0.627375
0.626265
0.625249
0.614371
0.615041
0.615677
0.616988
0.618616
0.620323
0.622104
0.624063
0.626179
0.628215
0.629524
0.629896
0.629625
0.629042
0.628299
0.62738
0.626346
0.625434
0.624991
0.624314
0.611077
0.611522
0.611923
0.612928
0.614202
0.615605
0.617133
0.618843
0.620751
0.62279
0.624398
0.625255
0.625583
0.625583
0.625338
0.624898
0.624344
0.623827
0.623646
0.62318
0.60697
0.607267
0.607628
0.608506
0.609631
0.610925
0.612388
0.61404
0.615914
0.618029
0.619992
0.621411
0.622259
0.622692
0.62282
0.622719
0.622448
0.62214
0.62202
0.621696
0.602186
0.602387
0.602762
0.603602
0.604712
0.606045
0.607606
0.609396
0.611427
0.613766
0.616161
0.618083
0.619387
0.620178
0.620577
0.620708
0.620626
0.620473
0.620376
0.620136
0.596919
0.597065
0.597438
0.598255
0.599411
0.600863
0.602605
0.604644
0.607007
0.609764
0.612703
0.615153
0.61686
0.617956
0.618597
0.618918
0.619041
0.619031
0.618968
0.618776
0.591207
0.591317
0.5917
0.592528
0.593766
0.595381
0.597369
0.599753
0.602599
0.605959
0.609517
0.61253
0.614665
0.616096
0.617015
0.617576
0.617908
0.618038
0.618019
0.617848
0.585075
0.585141
0.585526
0.586388
0.587744
0.589554
0.591826
0.59461
0.598018
0.602134
0.606486
0.610144
0.612785
0.614645
0.615942
0.616807
0.617382
0.617658
0.617679
0.617516
0.578422
0.578459
0.578887
0.579804
0.581309
0.58334
0.585914
0.589162
0.59323
0.598178
0.60347
0.607973
0.611289
0.613702
0.615462
0.616709
0.617539
0.617966
0.618034
0.617872
0.57115
0.571116
0.571543
0.572554
0.574256
0.57653
0.579467
0.583245
0.588073
0.594041
0.600485
0.606015
0.610193
0.613306
0.615644
0.617326
0.618453
0.619046
0.619165
0.618998
0.562912
0.562902
0.563351
0.564469
0.566439
0.569058
0.572484
0.576943
0.582692
0.589886
0.597666
0.604414
0.609618
0.613558
0.616549
0.61873
0.620198
0.620966
0.621141
0.620963
0.553614
0.553634
0.554089
0.555348
0.557613
0.560669
0.564721
0.570007
0.576835
0.585447
0.594911
0.603184
0.609592
0.614536
0.618274
0.621009
0.622871
0.623826
0.624053
0.623856
0.542805
0.542779
0.543336
0.544814
0.547444
0.551078
0.555947
0.562319
0.570561
0.580965
0.592399
0.602419
0.610247
0.616277
0.620841
0.624249
0.626538
0.627678
0.627955
0.627735
0.529973
0.529907
0.530583
0.53243
0.53563
0.540062
0.546014
0.553803
0.563862
0.576494
0.590237
0.602282
0.611646
0.618888
0.624428
0.62854
0.631305
0.632639
0.632948
0.632699
0.514839
0.514739
0.515511
0.517718
0.521647
0.527159
0.534574
0.54426
0.556666
0.572016
0.588501
0.602731
0.613823
0.622411
0.628993
0.633942
0.637199
0.638703
0.639035
0.638754
0.496333
0.49625
0.497272
0.50007
0.50502
0.512013
0.521414
0.533609
0.549007
0.567615
0.587199
0.603974
0.616963
0.626989
0.63474
0.640513
0.644246
0.645908
0.646231
0.645917
0.473574
0.473426
0.474736
0.478336
0.484769
0.493894
0.506015
0.521487
0.540548
0.563058
0.58621
0.60581
0.620844
0.632494
0.641481
0.648174
0.652381
0.654158
0.654435
0.654093
0.444188
0.444217
0.446317
0.451386
0.460127
0.4724
0.488376
0.508168
0.531744
0.558762
0.585906
0.608468
0.625719
0.639032
0.64933
0.656887
0.661448
0.663291
0.663491
0.663123
0.405378
0.405621
0.40917
0.417184
0.430015
0.447293
0.468591
0.493764
0.522633
0.55475
0.586253
0.61207
0.631619
0.646637
0.658159
0.66647
0.671268
0.673041
0.673135
0.67276
0.353847
0.354269
0.36129
0.374563
0.393848
0.418312
0.446627
0.478454
0.51354
0.551365
0.587504
0.616536
0.638374
0.655112
0.667875
0.676769
0.681432
0.682857
0.682794
0.682486
0.286204
0.288968
0.304119
0.325687
0.353892
0.387267
0.423748
0.463074
0.505095
0.549217
0.590453
0.623225
0.647889
0.666663
0.680752
0.690189
0.694592
0.695481
0.695399
0.695199
0.209298
0.218916
0.24423
0.275567
0.313964
0.356502
0.401259
0.448328
0.497615
0.548506
0.595413
0.632583
0.660226
0.681231
0.69692
0.706832
0.710881
0.711287
0.71131
0.711213
0.140738
0.155431
0.187078
0.227455
0.275533
0.326962
0.379828
0.434628
0.491195
0.548867
0.60147
0.642517
0.673088
0.696207
0.712998
0.723165
0.72699
0.727104
0.727217
0.727198
0.0885588
0.101829
0.138502
0.185008
0.240504
0.299515
0.359805
0.421915
0.485416
0.549338
0.607078
0.652106
0.68567
0.710653
0.728742
0.739494
0.743117
0.743586
0.743807
0.74378
0.0453675
0.0579095
0.0984271
0.148837
0.209792
0.274793
0.341541
0.410078
0.479737
0.549561
0.612573
0.661634
0.69765
0.724568
0.743978
0.755164
0.759551
0.760334
0.760361
0.760423
0.00860041
0.0213208
0.0645061
0.117777
0.183097
0.252948
0.325092
0.399195
0.474574
0.55036
0.618602
0.670965
0.709371
0.737905
0.758685
0.770554
0.775143
0.776014
0.776061
0.776127
-0.0234793
-0.0105475
0.0348207
0.0906933
0.159632
0.233456
0.310253
0.389416
0.470177
0.55131
0.623847
0.679384
0.720196
0.750306
0.772234
0.78451
0.789506
0.790468
0.790556
0.790603
-0.0518639
-0.0389781
0.00804869
0.0663645
0.138502
0.215865
0.296813
0.380434
0.465848
0.551557
0.62825
0.68725
0.730106
0.761419
0.784056
0.797059
0.802276
0.803408
0.803505
0.803543
-0.0777735
-0.0648745
-0.0165309
0.0441655
0.119135
0.199595
0.284141
0.371568
0.46107
0.55125
0.632288
0.694242
0.738858
0.771527
0.794531
0.807996
0.813584
0.814823
0.814956
0.814967
-0.101718
-0.0886397
-0.0395182
0.0234419
0.100906
0.18412
0.271791
0.362571
0.455892
0.550408
0.635544
0.700306
0.746805
0.780384
0.803818
0.817807
0.82347
0.824848
0.824976
0.824964
-0.124286
-0.110896
-0.061076
0.00385968
0.0834338
0.169054
0.259497
0.353355
0.450258
0.548759
0.637873
0.705668
0.754016
0.78864
0.81237
0.826333
0.832205
0.833582
0.833717
0.833672
-0.145535
-0.131975
-0.081502
-0.0149453
0.0664172
0.154224
0.247204
0.343903
0.444095
0.546329
0.639473
0.710462
0.760705
0.796209
0.820259
0.83404
0.839765
0.841175
0.8413
0.841201
-0.165725
-0.152129
-0.100977
-0.0330705
0.0498187
0.139576
0.234852
0.334135
0.437304
0.543027
0.640177
0.714604
0.767024
0.803747
0.827743
0.84095
0.846533
0.847799
0.847843
0.847733
-0.185235
-0.17133
-0.119692
-0.0506539
0.0335659
0.125068
0.222396
0.323965
0.429782
0.538813
0.640046
0.718165
0.773339
0.811195
0.835067
0.84771
0.852535
0.853596
0.853605
0.853524
-0.204417
-0.189865
-0.137782
-0.0677219
0.0176621
0.110668
0.209761
0.313344
0.421592
0.533812
0.639028
0.721091
0.779502
0.819226
0.842955
0.85441
0.858256
0.858704
0.858743
0.858731
-0.223142
-0.207851
-0.155363
-0.0843637
0.00203668
0.0963331
0.196945
0.302327
0.412826
0.527981
0.636961
0.723347
0.785535
0.827752
0.851911
0.862168
0.863899
0.863454
0.863319
0.863167
-0.241405
-0.22545
-0.172488
-0.100591
-0.0133043
0.0820833
0.183991
0.290987
0.403549
0.521344
0.63387
0.724763
0.791219
0.837074
0.86274
0.871483
0.870545
0.868606
0.868325
0.86929
-0.259029
-0.242591
-0.189148
-0.116425
-0.0283621
0.0679606
0.170987
0.279411
0.393804
0.513915
0.629635
0.725049
0.796493
0.846923
0.875674
0.884105
0.880434
0.873551
0.868706
0.867737
-0.276076
-0.259257
-0.205302
-0.131816
-0.043068
0.0540528
0.158022
0.267656
0.383622
0.505752
0.624271
0.723929
0.800618
0.857039
0.890802
0.901085
0.8974
0.886505
0.886519
0.89067
-0.292476
-0.275317
-0.220877
-0.146718
-0.0573704
0.0404256
0.14517
0.255797
0.373084
0.496944
0.617761
0.721123
0.803317
0.866348
0.907059
0.922578
0.919323
0.890015
0.851915
0.818693
-0.308233
-0.290815
-0.235901
-0.161171
-0.0713384
0.0269763
0.13229
0.243661
0.361974
0.487235
0.609892
0.716312
0.803427
0.873952
0.923846
0.947677
0.958279
0.93342
0.950881
1.01234
-0.323263
-0.30573
-0.250443
-0.17532
-0.0851627
0.0134686
0.119103
0.230914
0.34987
0.476066
0.600044
0.708622
0.799893
0.876795
0.932895
0.961616
0.964026
0.936736
0.892949
0.909816
-0.337574
-0.320092
-0.264476
-0.189103
-0.0987615
-1.03225e-06
0.105727
0.217686
0.336873
0.46347
0.588183
0.697868
0.790591
0.870298
0.927787
0.956971
0.937628
0.879282
0.813441
0.800529
-0.351124
-0.333837
-0.277985
-0.202537
-0.112152
-0.0134423
0.0921711
0.203995
0.323013
0.449485
0.574172
0.683533
0.775115
0.851056
0.903413
0.906057
0.867001
0.786455
0.710126
0.685208
-0.363974
-0.347017
-0.291005
-0.215636
-0.125348
-0.0268621
0.0784381
0.189857
0.308325
0.434099
0.557888
0.665497
0.752123
0.816493
0.844078
0.827776
0.764582
0.660494
0.571523
0.547617
-0.376546
-0.359968
-0.303899
-0.228771
-0.138706
-0.0405724
0.0642617
0.175051
0.292637
0.41716
0.539092
0.642996
0.722337
0.770595
0.764274
0.726834
0.611444
0.486652
0.377631
0.348932
-0.389717
-0.373545
-0.317378
-0.24253
-0.152761
-0.0550333
0.0492457
0.159253
0.275694
0.398452
0.517539
0.615841
0.687875
0.710832
0.676799
0.58563
0.427179
0.272629
0.141681
0.112744
-0.403982
-0.388023
-0.331709
-0.257164
-0.16771
-0.0703798
0.0333056
0.142419
0.25749
0.377986
0.493142
0.584721
0.645972
0.639955
0.587353
0.434929
0.233759
0.0200505
-0.160891
-0.210538
-0.419487
-0.403643
-0.347004
-0.272664
-0.183501
-0.0865711
0.0164711
0.124582
0.238075
0.35585
0.46592
0.55119
0.597141
0.559386
0.471352
0.282251
0.0507583
-0.23819
-0.558997
-0.708226
-0.43628
-0.420335
-0.363322
-0.289162
-0.200232
-0.103689
-0.00133136
0.105676
0.217403
0.332076
0.436242
0.514794
0.542557
0.474397
0.336913
0.131336
-0.102113
-0.445318
-1.03009
-1.60086
-0.454483
-0.438384
-0.380813
-0.30668
-0.217896
-0.12172
-0.0200706
0.085778
0.19563
0.307036
0.405175
0.475407
0.484113
0.399748
0.207612
-0.0254074
-0.227319
-0.460778
-1.0124
-2.51651
-0.474083
-0.457643
-0.399495
-0.325399
-0.236696
-0.140878
-0.0399887
0.064603
0.172427
0.280379
0.372469
0.432776
0.420665
0.341167
0.114413
-0.122498
-0.269786
-0.306477
-0.294961
-0.680018
-0.495048
-0.478529
-0.419653
-0.345559
-0.256988
-0.16165
-0.0617069
0.0413936
0.14686
0.250758
0.337106
0.386799
0.358546
0.291057
0.0648928
-0.136309
-0.246576
-0.254363
-0.201191
-0.241158
-0.517235
-0.500596
-0.44115
-0.367288
-0.278912
-0.184182
-0.0853904
0.0159564
0.118711
0.218057
0.299217
0.338833
0.30401
0.236883
0.0327765
-0.126567
-0.208551
-0.216555
-0.264462
-0.268391
-0.540619
-0.524123
-0.464067
-0.390513
-0.302413
-0.208491
-0.11109
-0.0117505
0.0879647
0.182642
0.258707
0.288772
0.256698
0.17587
0.00463113
-0.11719
-0.187005
-0.164335
-0.184637
-0.186266
-0.564889
-0.548137
-0.488067
-0.415214
-0.327402
-0.23451
-0.138733
-0.041645
0.0547464
0.144826
0.215821
0.235236
0.215689
0.107902
-0.0306557
-0.112313
-0.150673
-0.199176
-0.173367
-0.181987
-0.590003
-0.572841
-0.51321
-0.441133
-0.3536
-0.262099
-0.168159
-0.0734902
0.0192039
0.104922
0.171716
0.180612
0.172734
0.0473234
-0.0673218
-0.130778
-0.10748
-0.16739
-0.148236
-0.153179
-0.614745
-0.597392
-0.539167
-0.468002
-0.38072
-0.291012
-0.199066
-0.107
-0.0184834
0.0632845
0.127319
0.128717
0.120957
-0.00387484
-0.0940833
-0.14476
-0.133161
-0.14806
-0.15354
-0.151717
-0.638936
-0.621732
-0.565447
-0.495077
-0.408372
-0.320936
-0.231098
-0.141751
-0.057748
0.020348
0.0831171
0.0808211
0.0634249
-0.0462852
-0.107517
-0.13841
-0.177645
-0.148904
-0.154715
-0.149089
-0.661346
-0.644868
-0.590652
-0.521506
-0.436302
-0.351288
-0.263685
-0.177247
-0.0977706
-0.0236339
0.0387413
0.0373107
0.00782301
-0.08155
-0.121291
-0.113485
-0.186582
-0.129424
-0.144531
-0.136757
-0.681547
-0.666174
-0.61403
-0.546131
-0.464045
-0.38136
-0.296224
-0.212859
-0.137524
-0.0681045
-0.00618703
-0.00303523
-0.0375705
-0.100696
-0.129156
-0.0886089
-0.133387
-0.116299
-0.122414
-0.119308
-0.697702
-0.68396
-0.634443
-0.568669
-0.490495
-0.410098
-0.32785
-0.24784
-0.17617
-0.112336
-0.0516561
-0.0409595
-0.0693103
-0.101946
-0.119691
-0.0962332
-0.110531
-0.114193
-0.115132
-0.115349
-0.709173
-0.697595
-0.651394
-0.588165
-0.513997
-0.436594
-0.35765
-0.281262
-0.21288
-0.15505
-0.0960585
-0.0763794
-0.0928808
-0.0976058
-0.110397
-0.123385
-0.114557
-0.118582
-0.116533
-0.117299
-0.714398
-0.70525
-0.663244
-0.603565
-0.533412
-0.459692
-0.384644
-0.312153
-0.246913
-0.19462
-0.137187
-0.111307
-0.122112
-0.0981097
-0.102319
-0.137035
-0.114847
-0.122736
-0.116505
-0.118617
-0.713576
-0.706568
-0.668918
-0.613107
-0.547317
-0.478114
-0.407471
-0.339111
-0.277277
-0.22906
-0.173558
-0.145545
-0.147835
-0.115681
-0.0887199
-0.113476
-0.101343
-0.122118
-0.120714
-0.123791
-0.705683
-0.698378
-0.665787
-0.615706
-0.555232
-0.490949
-0.425153
-0.360896
-0.302389
-0.256863
-0.204291
-0.176634
-0.169569
-0.131491
-0.0736932
-0.0748285
-0.0931994
-0.108854
-0.114048
-0.116787
-0.685191
-0.676793
-0.65237
-0.609645
-0.555491
-0.496954
-0.436298
-0.375798
-0.319906
-0.275693
-0.226399
-0.202505
-0.207046
-0.254645
-0.335043
-0.409316
-0.420749
-0.39507
-0.366944
-0.345562
-0.642573
-0.634616
-0.625894
-0.595492
-0.549511
-0.496972
-0.441203
-0.383385
-0.328058
-0.283182
-0.235357
-0.203699
-0.284918
-0.427679
-0.66065
-0.814179
-0.826526
-0.800593
-0.754434
-0.70358
-0.601427
-0.598528
-0.597577
-0.573975
-0.537261
-0.491313
-0.439243
-0.382862
-0.32527
-0.275598
-0.226775
-0.160282
-0.169736
-0.234531
-0.339041
-0.355688
-0.282596
-0.213598
-0.147834
-0.105808
-0.578965
-0.58062
-0.570533
-0.556223
-0.526666
-0.484412
-0.433615
-0.376916
-0.313465
-0.249585
-0.188453
-0.0694031
0.0830644
0.319087
0.545369
0.747553
0.898076
0.987411
1.02946
1.06796
-0.547736
-0.547453
-0.544188
-0.542583
-0.517522
-0.47763
-0.426363
-0.367011
-0.297227
-0.216137
-0.130209
0.00739087
0.22676
0.557894
0.886045
1.15713
1.34538
1.45975
1.51709
1.53561
-0.535299
-0.533436
-0.536143
-0.529623
-0.511753
-0.474369
-0.421281
-0.357432
-0.28193
-0.189023
-0.0863094
0.0422986
0.278719
0.600372
0.919865
1.19023
1.38937
1.5089
1.56165
1.57696
-0.523408
-0.522227
-0.525624
-0.518677
-0.509638
-0.471956
-0.417897
-0.351414
-0.272075
-0.173523
-0.0651715
0.0397015
0.258604
0.535193
0.808472
1.04502
1.22853
1.33863
1.38686
1.40033
-0.509896
-0.509957
-0.510917
-0.509889
-0.506493
-0.46901
-0.415915
-0.348974
-0.268778
-0.170734
-0.0661346
0.0140263
0.196617
0.429464
0.6507
0.840841
0.992698
1.08474
1.12456
1.13458
-0.495881
-0.49616
-0.494363
-0.495817
-0.491849
-0.466633
-0.418646
-0.351283
-0.27197
-0.178895
-0.0801702
-0.0180047
0.124057
0.31813
0.493898
0.639062
0.755067
0.826544
0.856906
0.864591
-0.489585
-0.48803
-0.482456
-0.480719
-0.475356
-0.463602
-0.421251
-0.354526
-0.27793
-0.192891
-0.0996293
-0.0475066
0.0557302
0.214445
0.352392
0.461183
0.546595
0.600041
0.621957
0.626375
-0.505344
-0.502212
-0.497712
-0.495937
-0.49373
-0.482372
-0.42675
-0.356789
-0.281503
-0.20573
-0.118676
-0.0713085
-0.00199949
0.124769
0.232109
0.313323
0.37557
0.415049
0.430219
0.435258
-0.545447
-0.545551
-0.548124
-0.556486
-0.552892
-0.518821
-0.439285
-0.359576
-0.281542
-0.213434
-0.134027
-0.0891253
-0.0444435
0.0545181
0.13598
0.196103
0.242862
0.273604
0.284371
0.287617
-0.573103
-0.578407
-0.591894
-0.603133
-0.594203
-0.535529
-0.442689
-0.356436
-0.27554
-0.213466
-0.143227
-0.101204
-0.0711328
0.0065513
0.0664702
0.109506
0.144847
0.167133
0.176445
0.179061
-0.51721
-0.521216
-0.537584
-0.548349
-0.541868
-0.488866
-0.410254
-0.332692
-0.258808
-0.202932
-0.144532
-0.107407
-0.0846573
-0.0238799
0.0190817
0.049542
0.0735703
0.0879686
0.0944247
0.0960991
-0.365313
-0.372258
-0.381742
-0.389086
-0.3867
-0.362074
-0.321848
-0.276092
-0.224376
-0.179858
-0.137706
-0.107514
-0.0876842
-0.0428876
-0.0126921
0.00810045
0.0230434
0.0313798
0.0343854
0.0344418
-0.201735
-0.204802
-0.209805
-0.216931
-0.221427
-0.219417
-0.211134
-0.197195
-0.173012
-0.147798
-0.122414
-0.101373
-0.0838254
-0.0539691
-0.0339748
-0.0206861
-0.0121991
-0.00862383
-0.00823555
-0.00909549
-0.0708329
-0.0724765
-0.0761589
-0.0835415
-0.0937193
-0.104755
-0.114893
-0.121244
-0.118248
-0.111953
-0.100314
-0.0884896
-0.0758563
-0.0580287
-0.046398
-0.0392455
-0.0357566
-0.0353919
-0.0367228
-0.0379954
0.0126263
0.0115266
0.00892463
0.00121524
-0.0128549
-0.0307039
-0.0482217
-0.062993
-0.071446
-0.0776563
-0.0753218
-0.0702143
-0.0653428
-0.0563126
-0.0513179
-0.0495214
-0.0496627
-0.0514312
-0.0535003
-0.0548606
0.0533365
0.0526723
0.0506935
0.0436337
0.0293277
0.00996591
-0.00940171
-0.0266173
-0.0391221
-0.0501191
-0.0526238
-0.0523929
-0.0536006
-0.0509415
-0.0508049
-0.0525464
-0.0551446
-0.0581363
-0.0603572
-0.061665
0.0682422
0.0676922
0.0660297
0.0600814
0.0477071
0.0302024
0.0116835
-0.00588931
-0.0195758
-0.0313802
-0.0353171
-0.0383821
-0.0423885
-0.0436345
-0.0468498
-0.0506701
-0.0542985
-0.0574861
-0.0595321
-0.0607351
0.0686827
0.0682753
0.0669721
0.0623703
0.0527017
0.038586
0.0226469
0.00615771
-0.00740629
-0.0192428
-0.0235937
-0.0279385
-0.0327984
-0.0363219
-0.0409037
-0.0454432
-0.0492465
-0.0521502
-0.0538404
-0.0548983
0.0624154
0.0621442
0.061184
0.0578031
0.0506242
0.039969
0.0273402
0.0132567
0.00105341
-0.0106345
-0.0155089
-0.0199025
-0.0248564
-0.0290564
-0.0340633
-0.0385519
-0.042013
-0.0445136
-0.0457755
-0.0466751
0.0535278
0.0533585
0.0526694
0.0502744
0.0451245
0.0373018
0.0277591
0.0165947
0.00676853
-0.00405688
-0.00935014
-0.0134047
-0.0179871
-0.0221129
-0.0268662
-0.0308817
-0.0338795
-0.0359916
-0.036868
-0.0376177
0.0442138
0.0441212
0.0436372
0.0419834
0.0383928
0.0328071
0.0257659
0.0171678
0.00980412
0.000581317
-0.00444489
-0.00773969
-0.0117831
-0.0157214
-0.0200523
-0.0235841
-0.0261436
-0.0278935
-0.0285166
-0.0291464
0.0353698
0.0353372
0.0350171
0.0339286
0.0314736
0.0275615
0.022505
0.0160051
0.0107586
0.00345467
-0.000571257
-0.00329424
-0.00679234
-0.010285
-0.0141145
-0.0171919
-0.0193894
-0.0209013
-0.0213599
-0.0218675
0.027265
0.0272494
0.0270344
0.0263309
0.0246854
0.0219816
0.0184171
0.0135822
0.0100899
0.00462109
0.00196169
-4.2404e-05
-0.00314468
-0.00619989
-0.00944026
-0.0120174
-0.0138787
-0.0151616
-0.0155353
-0.0159408
0.0199874
0.0199811
0.0198259
0.0193886
0.0183277
0.0165509
0.0141372
0.0105799
0.00838874
0.00438519
0.00283526
0.00170164
-0.000824858
-0.0033341
-0.00598229
-0.00798622
-0.0093905
-0.0103145
-0.0105452
-0.0108887
0.0135263
0.0135188
0.0134338
0.0131932
0.0125704
0.0114987
0.010069
0.00761364
0.00639109
0.00341125
0.00253631
0.00198973
7.54197e-05
-0.00164157
-0.00363462
-0.00496126
-0.00579938
-0.00636542
-0.00656614
-0.0068868
0.00767459
0.00766396
0.00763835
0.00756484
0.00728156
0.00671741
0.0060677
0.00453477
0.00407328
0.00204582
0.0015672
0.00144105
0.000121752
-0.000553436
-0.00196473
-0.00278325
-0.00320276
-0.00353528
-0.00353927
-0.00374812
0.00249921
0.00252022
0.00255281
0.00258771
0.00255036
0.00233015
0.00219815
0.00143975
0.00152877
0.000569653
0.000550381
0.000806677
6.87551e-05
0.000210994
-0.000873483
-0.00151402
-0.00207419
-0.00253868
-0.00228936
-0.00226989
-1.07423
-0.237974
0.0319511
0.306854
0.486567
0.640318
0.763265
0.888796
1.02817
1.11254
-0.0976035
0.307343
0.322223
0.509414
0.631209
0.740484
0.834216
0.917965
0.94487
0.903389
0.27604
0.488548
0.522063
0.657739
0.742066
0.820556
0.885343
0.934037
0.935839
0.950252
0.503281
0.644794
0.679311
0.77972
0.836203
0.892789
0.937103
0.969178
0.978102
1.0019
0.679459
0.77971
0.80939
0.87587
0.920204
0.960518
0.992343
1.01649
1.02617
1.05784
0.821522
0.889661
0.919834
0.962156
0.997972
1.0278
1.05189
1.0726
1.08664
1.115
0.939898
0.990089
1.01551
1.04322
1.07065
1.09427
1.11413
1.13336
1.14819
1.17475
1.04318
1.08
1.10096
1.12148
1.14213
1.16144
1.17881
1.19691
1.21177
1.23545
1.13688
1.16589
1.18216
1.19737
1.21341
1.22944
1.24497
1.26187
1.27549
1.29781
1.22499
1.2454
1.26022
1.27335
1.2869
1.30066
1.31415
1.32874
1.34028
1.35993
1.31035
1.32612
1.33993
1.35173
1.36364
1.37528
1.38641
1.39809
1.40576
1.42256
1.39556
1.40809
1.4218
1.43355
1.44419
1.45398
1.4628
1.47106
1.47462
1.48586
1.4843
1.49512
1.5086
1.51812
1.52569
1.53298
1.54016
1.54663
1.54774
1.55509
1.5827
1.58731
1.5955
1.60024
1.60363
1.60811
1.61411
1.62177
1.62567
1.63555
1.69599
1.68288
1.6756
1.66988
1.66716
1.6685
1.67482
1.68719
1.70201
1.73168
1.81797
1.76193
1.73091
1.71371
1.70549
1.70542
1.71428
1.73389
1.76569
1.83496
)
;

boundaryField
{
    wall-4
    {
        type            zeroGradient;
    }
    pressure-outlet-7
    {
        type            fixedValue;
        value           uniform 0;
    }
    velocity-inlet-6
    {
        type            zeroGradient;
    }
    velocity-inlet-5
    {
        type            zeroGradient;
    }
    frontAndBackPlanes
    {
        type            empty;
    }
}


// ************************************************************************* //
