/*--------------------------------*- C++ -*----------------------------------*\
| =========                 |                                                 |
| \\      /  F ield         | OpenFOAM: The Open Source CFD Toolbox           |
|  \\    /   O peration     | Version:  v2012                                 |
|   \\  /    A nd           | Website:  www.openfoam.com                      |
|    \\/     M anipulation  |                                                 |
\*---------------------------------------------------------------------------*/
FoamFile
{
    version     2.0;
    format      ascii;
    class       surfaceScalarField;
    location    "63";
    object      phi;
}
// * * * * * * * * * * * * * * * * * * * * * * * * * * * * * * * * * * * * * //

dimensions      [0 3 -1 0 0 0 0];
oriented        oriented;


internalField   nonuniform List<scalar> 
4262
(
0.107129
0.470859
0.0955553
0.70516
0.0693572
0.858501
0.0473301
1.02079
0.0309439
1.2149
0.0197364
1.44943
0.0123314
1.73327
0.0071165
2.07625
0.00311411
2.48925
-0.000642388
2.98605
-0.00424668
2.9859
-0.00801856
2.48902
-0.0130615
2.07608
-0.0202081
1.73301
-0.0311304
1.44914
-0.047168
1.21455
-0.0688988
1.02049
-0.0951744
0.858579
-0.107059
0.705471
0.470929
0.112871
0.357988
0.13528
0.682751
0.120388
0.873393
0.0978346
1.04334
0.0745713
1.23817
0.0528289
1.47117
0.0344075
1.75169
0.0201681
2.09049
0.00892061
2.50049
-0.000988981
2.99596
-0.0111085
2.99602
-0.0223067
2.50021
-0.0363522
2.09012
-0.0546991
1.75136
-0.0765602
1.471
-0.100349
1.23834
-0.123572
1.04372
-0.137048
0.872055
-0.113572
0.681995
0.357357
0.0920483
0.26594
0.124974
0.649825
0.121106
0.877261
0.104846
1.0596
0.0862102
1.2568
0.0670749
1.4903
0.0481098
1.77066
0.0300521
2.10855
0.0134728
2.51707
-0.00262809
3.01206
-0.0183714
3.01176
-0.0343458
2.51619
-0.051847
2.10763
-0.0702073
1.76972
-0.0884943
1.48929
-0.105656
1.2555
-0.119715
1.05778
-0.125187
0.877526
-0.0923363
0.649145
0.26502
0.0639772
0.201962
0.104797
0.609005
0.106564
0.875494
0.0951682
1.071
0.0812349
1.27073
0.0664975
1.50504
0.050374
1.78678
0.0331944
2.12573
0.0155106
2.53476
-0.00307338
3.03064
-0.0216047
3.03029
-0.0390103
2.53359
-0.055484
2.1241
-0.0707625
1.785
-0.0846245
1.50315
-0.0983449
1.26923
-0.110096
1.06953
-0.107086
0.874517
-0.0649272
0.606986
0.200093
0.0374797
0.164483
0.0807167
0.565768
0.0909933
0.865217
0.0837845
1.07821
0.0711618
1.28336
0.0592821
1.51692
0.0462403
1.79982
0.031293
2.14068
0.0143229
2.55173
-0.00503297
3.05
-0.0237734
3.04903
-0.0395773
2.5494
-0.0534237
2.13795
-0.0654881
1.79706
-0.0767188
1.51438
-0.0886662
1.28117
-0.0950714
1.07593
-0.0832449
0.86269
-0.0384156
0.562156
0.161678
0.0194609
0.145022
0.0571851
0.528044
0.072563
0.849839
0.070449
1.08032
0.0616303
1.29218
0.0507395
1.52781
0.0395633
1.811
0.0268988
2.15334
0.0118354
2.56679
-0.00569412
3.06753
-0.0229842
3.06632
-0.0374188
2.56383
-0.0489897
2.14952
-0.058965
1.80704
-0.0688493
1.52427
-0.0764739
1.2888
-0.0772412
1.0767
-0.0600549
0.845504
-0.0203878
0.522489
0.14129
0.0106024
0.134419
0.0422928
0.496354
0.0583733
0.833759
0.0586349
1.08006
0.0524739
1.29834
0.0430786
1.53721
0.0326507
1.82142
0.0212549
2.16474
0.00790372
2.58014
-0.00819904
3.08363
-0.0236837
3.08181
-0.0354782
2.57563
-0.045211
2.15925
-0.0540298
1.81585
-0.0618895
1.53213
-0.0664162
1.29332
-0.0644569
1.07474
-0.0460053
0.827052
-0.0117374
0.488221
0.129553
0.00656063
0.127859
0.0329124
0.470002
0.0491576
0.817514
0.0506549
1.07856
0.0455492
1.30344
0.0371726
1.54558
0.0275282
1.83107
0.0166459
2.17562
0.00460193
2.59219
-0.00928484
3.09752
-0.022668
3.09519
-0.0336271
2.58659
-0.0429005
2.16852
-0.0505744
1.82353
-0.0570475
1.5386
-0.0601941
1.29647
-0.056508
1.07105
-0.0373191
0.807864
-0.00789704
0.458799
0.121656
0.00470035
0.123158
0.0265083
0.448194
0.0422651
0.801757
0.0443203
1.07651
0.0396498
1.30811
0.0319841
1.55325
0.0228209
1.84023
0.0121611
2.18628
0.000309397
2.60404
-0.0127656
3.11059
-0.0247532
3.10718
-0.0343824
2.59621
-0.0424822
2.17662
-0.0493493
1.8304
-0.0547171
1.54397
-0.0569367
1.29869
-0.0518194
1.06594
-0.0320704
0.788115
-0.0063855
0.433114
0.11527
0.00373516
0.119423
0.0216529
0.430276
0.0367825
0.786627
0.039503
1.07379
0.0350719
1.31254
0.0276084
1.56071
0.0187677
1.84907
0.00878187
2.19626
-0.00236132
2.61518
-0.0145691
3.1228
-0.0259958
3.1186
-0.0354295
2.60565
-0.0429798
2.18417
-0.0489283
1.83634
-0.0536216
1.54866
-0.0548123
1.29988
-0.0484016
1.05953
-0.0283943
0.768107
-0.00580052
0.41052
0.109469
0.00303229
0.116391
0.0174764
0.415832
0.0313603
0.772743
0.0342865
1.07086
0.0301193
1.31671
0.0229591
1.56787
0.0143316
1.8577
0.00419215
2.2064
-0.00733538
2.62671
-0.0195094
3.13497
-0.0301989
3.12929
-0.0381471
2.6136
-0.0445698
2.1906
-0.0499273
1.8417
-0.0537014
1.55243
-0.0537836
1.29996
-0.0459127
1.05165
-0.0257074
0.747902
-0.00554062
0.390354
0.103929
0.00234677
0.114044
0.0137615
0.404417
0.026284
0.760221
0.0293456
1.0678
0.0253081
1.32075
0.0181844
1.575
0.00964978
1.86624
3.0195e-05
2.21602
-0.0106059
2.63734
-0.0224594
3.14683
-0.0331803
3.14001
-0.0414312
2.62185
-0.0473177
2.19648
-0.0514804
1.84586
-0.0541279
1.55508
-0.0534501
1.29929
-0.0441643
1.04237
-0.0238312
0.727569
-0.00542612
0.371949
0.0985028
0.00169127
0.112353
0.010509
0.3956
0.0212869
0.749443
0.023846
1.06524
0.0196932
1.3249
0.012605
1.58209
0.00397747
1.87486
-0.00604015
2.22604
-0.0174068
2.64871
-0.0294219
3.15884
-0.0392386
3.14983
-0.0456296
2.62824
-0.0502803
2.20113
-0.0538591
1.84944
-0.055568
1.55679
-0.0539035
1.29762
-0.0432791
1.03174
-0.0226301
0.70692
-0.00536267
0.354681
0.0931401
0.000816522
0.111536
0.00701642
0.3894
0.016109
0.74035
0.0183187
1.06303
0.0139335
1.32929
0.0065622
1.58946
-0.00222292
1.88365
-0.0120612
2.23588
-0.0228057
2.65945
-0.034101
3.17014
-0.0438555
3.15959
-0.0505057
2.63489
-0.0544387
2.20507
-0.0570126
1.85202
-0.0576549
1.55743
-0.0550017
1.29497
-0.043001
1.01974
-0.0219266
0.685845
-0.00533918
0.338094
0.0878009
0.000127315
0.111409
0.00414419
0.385383
0.0108351
0.733659
0.0117543
1.06211
0.00672219
1.33432
-0.00115722
1.59734
-0.0105984
1.89309
-0.0211182
2.2464
-0.0324125
2.67075
-0.0437751
3.1815
-0.0521645
3.16797
-0.0567176
2.63944
-0.0595856
2.20793
-0.061516
1.85395
-0.0613882
1.55731
-0.0571646
1.29074
-0.0435034
1.00608
-0.0217375
0.66408
-0.00539801
0.321754
0.0824029
-0.000850638
0.11226
0.000447735
0.384084
0.00515445
0.728953
0.00536337
1.0619
-0.000180374
1.33986
-0.00875169
1.60591
-0.018641
1.90298
-0.0292507
2.25701
-0.0403974
2.6819
-0.0514328
3.19254
-0.0596883
3.17623
-0.0643019
2.64406
-0.0662857
2.20992
-0.0672848
1.85495
-0.0661845
1.55621
-0.0603253
1.28488
-0.04478
0.990538
-0.0220482
0.641348
-0.00554968
0.305256
0.0768532
-0.00170524
0.113965
-0.00261647
0.384996
-0.000755314
0.727092
-0.00249327
1.06364
-0.00917216
1.34654
-0.0186667
1.6154
-0.0297409
1.91405
-0.0418563
2.26912
-0.0541173
2.69416
-0.0648713
3.20329
-0.0715476
3.18291
-0.0747384
2.64725
-0.0759186
2.2111
-0.0755322
1.85456
-0.0727007
1.55337
-0.0648653
1.27705
-0.0470759
0.972748
-0.0229339
0.617206
-0.00583508
0.288157
0.0710181
-0.00307469
0.11704
-0.00638602
0.388307
-0.00814576
0.728851
-0.0114951
1.06699
-0.0190449
1.35409
-0.0294606
1.62582
-0.041219
1.92581
-0.0535317
2.28144
-0.0657058
2.70633
-0.076798
3.21438
-0.0838168
3.18993
-0.0861986
2.64963
-0.085719
2.21062
-0.0843575
1.8532
-0.0806877
1.5497
-0.0706588
1.26702
-0.05028
0.952369
-0.0243054
0.591231
-0.00621348
0.270065
0.0648047
-0.00436716
0.121407
-0.0106016
0.394541
-0.0157132
0.733963
-0.0219348
1.07321
-0.03095
1.36311
-0.0427709
1.63764
-0.05609
1.93913
-0.0705927
2.29594
-0.0849328
2.72067
-0.0959752
3.22543
-0.100502
3.19445
-0.101182
2.65031
-0.100505
2.20994
-0.0972984
1.84999
-0.0910298
1.54344
-0.0783509
1.25434
-0.054728
0.928746
-0.0262517
0.562755
-0.00671616
0.250529
0.0580885
-0.0058109
0.127218
-0.015653
0.404384
-0.0248989
0.743209
-0.0341259
1.08244
-0.0452707
1.37425
-0.0590628
1.65143
-0.0740441
1.95411
-0.0890538
2.31095
-0.102559
2.73418
-0.11322
3.23609
-0.118729
3.19996
-0.118907
2.65049
-0.115182
2.20622
-0.110579
1.84539
-0.103227
1.53608
-0.0872678
1.23838
-0.0598434
0.901322
-0.0284551
0.531367
-0.00721486
0.229289
0.0508736
-0.00812803
0.135346
-0.0224294
0.418685
-0.0368919
0.757671
-0.0494847
1.09503
-0.0626052
1.38737
-0.0783913
1.66722
-0.0953863
1.97111
-0.112945
2.32851
-0.129363
2.75059
-0.141222
3.24795
-0.143259
3.202
-0.140231
2.64746
-0.136091
2.20207
-0.129257
1.83855
-0.118346
1.52517
-0.0986742
1.21871
-0.0665018
0.86915
-0.0311542
0.496019
-0.00778413
0.205919
0.0430895
-0.0105471
0.145893
-0.0296225
0.43776
-0.05004
0.778089
-0.0676653
1.11266
-0.0844734
1.40418
-0.103491
1.68624
-0.123402
1.99102
-0.142282
2.34739
-0.157306
2.76562
-0.165572
3.25621
-0.167181
3.20361
-0.163789
2.64407
-0.156536
2.19482
-0.148196
1.83021
-0.135391
1.51237
-0.110811
1.19413
-0.073088
0.831427
-0.0336523
0.456583
-0.00821071
0.180478
0.0348788
-0.0153198
0.161213
-0.0420958
0.464536
-0.0696425
0.805636
-0.0921373
1.13515
-0.112342
1.42438
-0.134744
1.70864
-0.156913
2.01319
-0.177408
2.36788
-0.193875
2.78208
-0.203951
3.26629
-0.202997
3.20265
-0.194732
2.6358
-0.185421
2.18551
-0.173474
1.81827
-0.155514
1.49441
-0.125473
1.16409
-0.081169
0.787123
-0.036315
0.411729
-0.00857561
0.152738
0.0263032
-0.0193922
0.180605
-0.0547695
0.499914
-0.0919061
0.842772
-0.122314
1.16556
-0.148645
1.45072
-0.175511
1.7355
-0.200645
2.03832
-0.222068
2.38931
-0.236821
2.79684
-0.24048
3.26995
-0.234048
3.19622
-0.224475
2.62623
-0.212596
2.17363
-0.198721
1.80439
-0.177709
1.4734
-0.140341
1.12672
-0.0878455
0.734627
-0.0379589
0.361843
-0.00849905
0.123278
0.0178041
-0.0326326
0.213237
-0.0818107
0.549092
-0.129604
0.890565
-0.166352
1.20231
-0.197825
1.48219
-0.228826
1.7665
-0.254853
2.06435
-0.274988
2.40944
-0.286491
2.80834
-0.28752
3.27098
-0.278992
3.18769
-0.265064
2.6123
-0.249722
2.15829
-0.231119
1.78579
-0.20229
1.44457
-0.156497
1.08093
-0.0954967
0.673627
-0.0396246
0.305971
-0.00834872
0.0920024
0.00945541
-0.0470461
0.260284
-0.120855
0.622901
-0.184642
0.954352
-0.230271
1.24794
-0.267949
1.51987
-0.299395
1.79795
-0.322857
2.08781
-0.339046
2.42563
-0.345908
2.8152
-0.340431
3.2655
-0.323082
3.17034
-0.303613
2.59283
-0.283953
2.13863
-0.261164
1.763
-0.226999
1.4104
-0.17057
1.0245
-0.0983035
0.60136
-0.0385211
0.246188
-0.00810448
0.0615858
0.00135093
-0.0340467
0.29433
-0.0977325
0.686587
-0.156407
1.01303
-0.20425
1.29578
-0.247752
1.56337
-0.286926
1.83713
-0.323718
2.1246
-0.356992
2.4589
-0.382531
2.84074
-0.395893
3.27886
-0.395912
3.17036
-0.386743
2.58366
-0.370753
2.12264
-0.343541
1.73579
-0.290642
1.3575
-0.207119
0.940977
-0.11114
0.505381
-0.0420248
0.177073
-0.00940903
0.0289701
-0.0080581
-0.0125835
0.306914
-0.0476126
0.721616
-0.0898395
1.05525
-0.1297
1.33564
-0.169284
1.60295
-0.204637
1.87248
-0.237577
2.15754
-0.266091
2.48742
-0.286733
2.86139
-0.295765
3.28789
-0.289986
3.16459
-0.27259
2.56626
-0.248292
2.09834
-0.214528
1.70202
-0.169603
1.31258
-0.109347
0.88072
-0.050158
0.446192
-0.0185777
0.145493
-0.00450665
0.014899
-0.0125648
7.79379e-05
0.306836
-0.0245219
0.746216
-0.0541108
1.08484
-0.0846348
1.36617
-0.116734
1.63505
-0.147817
1.90356
-0.176532
2.18625
-0.200456
2.51134
-0.216309
2.87724
-0.219766
3.29135
-0.205811
3.15063
-0.183546
2.544
-0.159073
2.07387
-0.130513
1.67347
-0.0906481
1.27271
-0.0462886
0.836361
-0.0158749
0.415779
-0.00575913
0.135377
-0.0018716
0.0110115
-0.0144364
0.000721228
0.306115
-0.0130112
0.759948
-0.0342882
1.10612
-0.0588715
1.39075
-0.0850038
1.66118
-0.111216
1.92977
-0.135582
2.21062
-0.155883
2.53164
-0.168574
2.88993
-0.167535
3.29031
-0.15083
3.13392
-0.127869
2.52104
-0.100495
2.04649
-0.0674007
1.64037
-0.0349141
1.24023
-0.00864457
0.810091
0.00340541
0.403729
0.00247587
0.136307
0.000217326
0.0132701
-0.014219
0.00452832
0.301586
-0.00425811
0.768734
-0.0224815
1.12434
-0.0435357
1.4118
-0.0655306
1.68318
-0.0874654
1.95171
-0.108264
2.23142
-0.125105
2.54848
-0.134065
2.89889
-0.130568
3.28681
-0.114044
3.1174
-0.0895186
2.49651
-0.0613004
2.01828
-0.034801
1.61387
-0.00623393
1.21166
0.0145521
0.789305
0.0163633
0.401917
0.00870267
0.143967
0.0021334
0.0198393
-0.0120856
0.00521779
0.296368
-0.00067224
0.774624
-0.0162196
1.13989
-0.0343125
1.4299
-0.0535227
1.70239
-0.0728161
1.971
-0.0907883
2.24939
-0.105247
2.56294
-0.112925
2.90657
-0.108418
3.28231
-0.0898064
3.09879
-0.0664894
2.4732
-0.0405011
1.99229
-0.0107856
1.58416
0.0112737
1.1896
0.0222318
0.778347
0.0210142
0.403135
0.0112928
0.153689
0.00299167
0.0281404
-0.00909396
0.00454992
0.291819
0.000667812
0.778506
-0.0125506
1.15311
-0.0292103
1.44656
-0.0464994
1.71968
-0.0635761
1.98808
-0.0797405
2.26556
-0.0930029
2.57621
-0.0998965
2.91346
-0.0951682
3.27758
-0.0789231
3.08254
-0.0555282
2.4498
-0.0280513
1.96481
-0.00559535
1.5617
0.0149121
1.16909
0.0260935
0.767166
0.0220541
0.407174
0.0119689
0.163774
0.0033272
0.0367821
-0.00576676
0.00270799
0.289111
-0.000688106
0.781903
-0.0120407
1.16446
-0.0264318
1.46095
-0.0423066
1.73555
-0.0584582
2.00423
-0.0738631
2.28096
-0.0866045
2.58895
-0.0932436
2.9201
-0.0884043
3.27274
-0.0715263
3.06567
-0.0496335
2.42791
-0.0278007
1.94298
-0.00239339
1.53629
0.0155592
1.15114
0.0227552
0.75997
0.0201546
0.409775
0.0111053
0.172823
0.00321785
0.0446696
-0.00254891
0.00115389
0.287957
-0.00165064
0.784707
-0.0122876
1.1751
-0.0258493
1.47451
-0.0408967
1.7506
-0.0559537
2.01929
-0.0704988
2.29551
-0.0827404
2.60119
-0.0894438
2.9268
-0.0864309
3.26973
-0.0723711
3.05161
-0.0511745
2.40671
-0.026698
1.9185
-0.00780293
1.5174
0.00924069
1.1341
0.0191904
0.75002
0.0163976
0.412568
0.00927115
0.17995
0.00274868
0.0511921
0.000199767
-0.000479124
0.288436
-0.00485481
0.789083
-0.0140217
1.18426
-0.0259657
1.48645
-0.0400024
1.76464
-0.0546849
2.03397
-0.0691544
2.30998
-0.0818025
2.61384
-0.0897311
2.93473
-0.0883803
3.26837
-0.0740647
3.03729
-0.0550272
2.38767
-0.0362003
1.89967
-0.013312
1.49451
0.00339639
1.11739
0.0105606
0.742856
0.0112486
0.41188
0.00651203
0.184686
0.00209622
0.0556079
0.00229598
-0.0014167
0.289852
-0.00607802
0.793744
-0.0152858
1.19347
-0.027054
1.49822
-0.0405854
1.77817
-0.0545623
2.04795
-0.0686749
2.32409
-0.0815756
2.62674
-0.0903518
2.94351
-0.0908273
3.26885
-0.0795796
3.02604
-0.0611815
2.36928
-0.0392229
1.87772
-0.0225084
1.4778
-0.00684701
1.10173
0.00423648
0.731772
0.00564827
0.410468
0.00389007
0.186445
0.00143278
0.0580652
0.00372877
-0.00300848
0.292861
-0.00849362
0.799229
-0.0171097
1.20209
-0.0278802
1.50899
-0.0406107
1.7909
-0.0544181
2.06175
-0.0688401
2.33851
-0.0825267
2.64042
-0.0927757
2.95376
-0.0956764
3.27175
-0.0858569
3.01622
-0.0688772
2.3523
-0.0513586
1.8602
-0.0298388
1.45628
-0.0137211
1.08561
-0.00437354
0.722425
0.000670703
0.405424
0.00117499
0.18594
0.000662823
0.0585774
0.00439159
-0.00381404
0.296675
-0.00922378
0.804639
-0.018021
1.21089
-0.0289386
1.51991
-0.0415055
1.80347
-0.0548981
2.07515
-0.0691611
2.35277
-0.0832441
2.65451
-0.0947979
2.96531
-0.100089
3.27704
-0.0931839
3.00932
-0.07734
2.33645
-0.0554568
1.83831
-0.0384053
1.43922
-0.0219355
1.06914
-0.00865087
0.70914
-0.00340923
0.400182
-0.000613555
0.183145
0.000164946
0.0577989
0.00455654
-0.00425435
0.300929
-0.0107183
0.811103
-0.0192765
1.21944
-0.0294632
1.5301
-0.0414559
1.81546
-0.0547701
2.08846
-0.0693724
2.36738
-0.0842232
2.66936
-0.0972711
2.97836
-0.104862
3.28463
-0.100791
3.00525
-0.0863599
2.32202
-0.0680465
1.82
-0.0443436
1.41552
-0.0257811
1.05058
-0.013644
0.697003
-0.00555779
0.392096
-0.00168631
0.179273
-0.00017115
0.0562837
0.00438539
-0.00422096
0.30515
-0.0107652
0.817647
-0.0195386
1.22822
-0.029936
1.54049
-0.0419305
1.82745
-0.054969
2.1015
-0.0694053
2.38181
-0.0845868
2.68454
-0.0990636
2.99284
-0.109472
3.29504
-0.108777
3.00455
-0.0950018
2.30825
-0.0717348
1.79673
-0.0507269
1.39451
-0.0297172
1.02957
-0.0130483
0.680334
-0.00561403
0.384662
-0.00171658
0.175376
-0.000505684
0.0550728
0.00387971
-0.00440247
0.309553
-0.0116088
0.824853
-0.0201299
1.23674
-0.0299132
1.55028
-0.0413865
1.83893
-0.0543037
2.11442
-0.0690015
2.39651
-0.0848946
2.70043
-0.100709
3.00865
-0.113072
3.3074
-0.114857
3.00634
-0.1035
2.29689
-0.084645
1.77788
-0.0552942
1.36516
-0.02943
1.0037
-0.0119303
0.662835
-0.000797245
0.373528
0.00230063
0.172278
0.0015409
0.0558325
0.0054206
-0.00435304
0.313906
-0.011308
0.831808
-0.0198268
1.24526
-0.0297412
1.56019
-0.0411979
1.85038
-0.0538815
2.1271
-0.0684012
2.41103
-0.0845133
2.71654
-0.101471
3.02561
-0.11653
3.32246
-0.122259
3.01207
-0.112545
2.28718
-0.0888174
1.75415
-0.0612206
1.33757
-0.0289176
0.971401
-0.00364711
0.637564
0.00831303
0.361568
0.00657839
0.174012
-0.00105739
0.0634683
0.00436322
-0.00448314
0.318389
-0.0117348
0.83906
-0.01991
1.25343
-0.0292158
1.5695
-0.0401232
1.86129
-0.0526113
2.13959
-0.0672787
2.4257
-0.0839361
2.7332
-0.101936
3.04361
-0.118643
3.33917
-0.126765
3.02019
-0.120532
2.28094
-0.102867
1.73649
-0.0671355
1.30183
-0.0260626
0.930328
0.00987224
0.601629
0.0362199
0.335221
0.0439104
0.166322
0.0277504
0.0796283
0.0321136
-0.00433313
0.322722
-0.01118
0.845907
-0.0192198
1.26147
-0.0285344
1.57881
-0.0393555
1.87211
-0.0516014
2.15183
-0.066024
2.44012
-0.0827128
2.74989
-0.101478
3.06237
-0.120452
3.35814
-0.132059
3.0318
-0.129937
2.27882
-0.108693
1.71524
-0.0753552
1.2685
-0.0264787
0.881451
0.021626
0.553525
0.0595258
0.297321
0.0523212
0.173526
0.0229098
0.10904
0.0550234
-0.00427243
0.326994
-0.0112698
0.852904
-0.0189465
1.26915
-0.0276399
1.5875
-0.0379199
1.88239
-0.0498898
2.1638
-0.0643147
2.45454
-0.0813449
2.76692
-0.100872
3.0819
-0.121237
3.37851
-0.134642
3.0452
-0.136763
2.28094
-0.124638
1.70312
-0.0869482
1.23081
-0.0322082
0.826711
0.0393571
0.481959
0.136148
0.20053
0.202594
0.107081
0.184851
0.126782
0.239875
-0.004098
0.331092
-0.0107393
0.859546
-0.0184434
1.27685
-0.0274181
1.59648
-0.0381137
1.89309
-0.0505665
2.17626
-0.0657692
2.46975
-0.0841941
2.78535
-0.106253
3.10396
-0.131152
3.40341
-0.151156
3.0652
-0.159466
2.28925
-0.145723
1.68937
-0.11201
1.19709
-0.0475801
0.762282
0.0110857
0.423294
-0.0522126
0.263828
-0.354486
0.409354
-0.944504
0.716801
0.9017
-1.60633
-0.0039849
0.335077
-0.0107557
0.866316
-0.0182157
1.28431
-0.0267943
1.60506
-0.0371847
1.90348
-0.0497235
2.1888
-0.0654863
2.48551
-0.0850882
2.80495
-0.109175
3.12805
-0.137538
3.43177
-0.162051
3.08972
-0.175449
2.30265
-0.179853
1.69378
-0.152981
1.17022
-0.118547
0.727848
-0.217506
0.522253
-0.693888
0.74021
-1.45099
1.16646
-2.05645
1.32226
1.21598
-2.37073
-0.0037384
0.338816
-0.0100089
0.872587
-0.0173035
1.29161
-0.025953
1.61371
-0.0364632
1.91399
-0.0491556
2.20149
-0.0652311
2.50158
-0.0855677
2.82528
-0.111388
3.15387
-0.14354
3.46392
-0.175245
3.12142
-0.198329
2.32573
-0.202994
1.69844
-0.184862
1.15209
-0.270098
0.813084
-0.752923
1.00508
-1.55517
1.54245
-2.11498
1.72627
-2.35288
1.56016
1.32968
-2.46659
-0.003627
0.342443
-0.00983282
0.878793
-0.016819
1.29859
-0.0250353
1.62192
-0.0351792
1.92413
-0.0478678
2.21418
-0.0643683
2.51809
-0.0857454
2.84666
-0.113556
3.18168
-0.149578
3.49995
-0.187027
3.15887
-0.216623
2.35533
-0.240155
1.72197
-0.313713
1.22565
-0.677517
1.17689
-1.44359
1.77116
-2.03044
2.1293
-2.26921
1.96504
-2.38188
1.67282
1.3933
-2.4455
-0.0033026
0.345745
-0.00892079
0.884411
-0.0156312
1.3053
-0.0238203
1.63011
-0.0340706
1.93438
-0.0468563
2.22696
-0.0635625
2.53479
-0.0855274
2.86863
-0.114932
3.21108
-0.154624
3.53964
-0.200177
3.20442
-0.24312
2.39827
-0.280823
1.75968
-0.461725
1.40655
-1.09606
1.81122
-1.79232
2.46742
-2.10994
2.44692
-2.2573
2.1124
-2.33913
1.75465
1.45932
-2.40514
-0.00330864
0.349054
-0.00909438
0.890197
-0.0157545
1.31196
-0.0237739
1.63813
-0.0340366
1.94464
-0.0470641
2.23999
-0.064378
2.55211
-0.0875184
2.89177
-0.118965
3.24253
-0.162652
3.58332
-0.21453
3.2563
-0.259777
2.44352
-0.346132
1.84603
-0.741209
1.80163
-1.49264
2.56265
-1.96321
2.938
-2.16286
2.64657
-2.2688
2.21834
-2.34597
1.83182
1.52256
-2.40921
-0.00336186
0.352416
-0.00910807
0.895943
-0.016162
1.31902
-0.0248689
1.64684
-0.0359064
1.95568
-0.0496919
2.25377
-0.0678305
2.57024
-0.0920612
2.916
-0.125423
3.27589
-0.172918
3.63082
-0.230472
3.31386
-0.292558
2.50561
-0.478871
2.03234
-1.04572
2.36847
-1.67983
3.19676
-1.95295
3.21111
-2.0994
2.79302
-2.21315
2.33209
-2.30675
1.92542
1.5841
-2.36829
-0.00350783
0.355924
-0.00995597
0.902391
-0.0174029
1.32647
-0.0263014
1.65574
-0.0375641
1.96694
-0.0519015
2.26811
-0.0710119
2.58935
-0.0968041
2.94179
-0.132439
3.31152
-0.184137
3.68252
-0.247297
3.37702
-0.331538
2.58985
-0.613215
2.31402
-1.26398
3.01923
-1.75145
3.68424
-1.9584
3.41806
-2.09775
2.93237
-2.22149
2.45583
-2.33164
2.03557
1.64269
-2.39023
-0.00342875
0.359352
-0.00970954
0.908672
-0.0176565
1.33441
-0.0274537
1.66554
-0.0396621
1.97915
-0.0548624
2.28331
-0.0748687
2.60936
-0.101758
2.96868
-0.139242
3.34901
-0.193994
3.73727
-0.262165
3.44519
-0.386903
2.71458
-0.773945
2.70106
-1.41029
3.65558
-1.76113
4.03509
-1.93364
3.59057
-2.03521
3.03393
-2.12365
2.54427
-2.1904
2.10233
1.63532
-2.18303
-0.00346465
0.362817
-0.0106267
0.915834
-0.0190389
1.34282
-0.0289849
1.67548
-0.0413963
1.99156
-0.0571561
2.29907
-0.0781654
2.63037
-0.10668
2.99719
-0.146378
3.38871
-0.203835
3.79473
-0.282754
3.52411
-0.451805
2.88364
-0.904873
3.15413
-1.46139
4.21209
-1.72229
4.29599
-1.87345
3.74173
-1.96673
3.12722
-1.96757
2.54511
-1.89777
2.03252
1.59822
-1.86067
-0.00321696
0.366034
-0.00991573
0.922533
-0.0187873
1.3517
-0.0297177
1.68641
-0.0430967
2.00494
-0.0595513
2.31553
-0.0810119
2.65183
-0.109719
3.0259
-0.149684
3.42867
-0.206359
3.8514
-0.2922
3.60995
-0.497087
3.08852
-0.988158
3.6452
-1.42836
4.6523
-1.5926
4.46022
-1.65928
3.80841
-1.66352
3.13146
-1.51575
2.39734
-1.01603
1.5328
0.582196
-0.00285014
0.368884
-0.01073
0.930412
-0.0201538
1.36112
-0.0312545
1.69751
-0.0450825
2.01877
-0.0626228
2.33307
-0.0859775
2.67519
-0.117718
3.05764
-0.161936
3.47289
-0.226154
3.91562
-0.329561
3.71335
-0.583256
3.34222
-1.123
4.18495
-1.48032
5.00962
-1.57945
4.55935
-1.57721
3.80618
-1.47338
3.02762
-1.23456
2.15853
-0.630766
0.928996
-0.0485703
-0.00253112
0.371415
-0.00918267
0.937064
-0.0189773
1.37091
-0.0314801
1.71002
-0.0469432
2.03423
-0.0661313
2.35226
-0.0914223
2.70048
-0.125584
3.0918
-0.173943
3.52125
-0.243618
3.9853
-0.36627
3.83601
-0.681313
3.65726
-1.24172
4.74536
-1.50137
5.26927
-1.55962
4.61759
-1.53698
3.78354
-1.3351
2.82574
-0.781573
1.605
-0.108395
0.255818
-0.156965
-0.00158623
0.373002
-0.00962761
0.945105
-0.0199269
1.38121
-0.0323704
1.72246
-0.0480196
2.04988
-0.0681418
2.37238
-0.0952793
2.72761
-0.13263
3.12915
-0.185051
3.57367
-0.263703
4.06395
-0.41312
3.98542
-0.78509
4.02923
-1.31949
5.27975
-1.49505
5.44483
-1.52618
4.64872
-1.43776
3.69512
-1.10043
2.48841
-0.312448
0.817019
0.0247211
-0.081351
-0.132244
-0.000941064
0.373943
-0.0066138
0.950778
-0.0168857
1.39149
-0.0308503
1.73642
-0.0482241
2.06726
-0.0700438
2.3942
-0.0991618
2.75673
-0.138701
3.16869
-0.19384
3.62881
-0.280141
4.15025
-0.455477
4.16076
-0.893782
4.46754
-1.36482
5.75079
-1.48085
5.56086
-1.4831
4.65098
-1.25818
3.4702
-0.685256
1.91549
-0.0627147
0.194478
0.0300907
-0.174156
-0.102153
3.54721e-05
0.373907
-0.00615663
0.95697
-0.0166103
1.40194
-0.0302153
1.75003
-0.0472407
2.08428
-0.0697355
2.41669
-0.100355
2.78735
-0.142551
3.21089
-0.20137
3.68763
-0.297583
4.24646
-0.499453
4.36263
-0.987467
4.95555
-1.36021
6.12353
-1.42394
5.62459
-1.37756
4.6046
-1.08927
3.18191
-0.321855
1.14807
0.00484008
-0.132218
0.0149125
-0.184229
-0.0872408
0.00328936
0.370618
0.000580277
0.959679
-0.010208
1.41273
-0.0254194
1.76524
-0.0439225
2.10279
-0.068073
2.44084
-0.100407
2.81968
-0.144243
3.25472
-0.205545
3.74893
-0.309193
4.35011
-0.53689
4.59033
-1.04916
5.46782
-1.32426
6.39863
-1.36497
5.6653
-1.22453
4.46415
-0.769827
2.72721
-0.0678642
0.446106
0.0445546
-0.244637
0.0242454
-0.16392
-0.0629954
0.00427145
0.366346
0.00219118
0.96176
-0.00776451
1.42268
-0.021588
1.77906
-0.0389377
2.12014
-0.0633443
2.46525
-0.0964009
2.85274
-0.142015
3.30034
-0.206194
3.81311
-0.318496
4.46241
-0.576516
4.84835
-1.07164
5.96294
-1.26126
6.58826
-1.26987
5.67392
-1.0499
4.24418
-0.459412
2.13672
-0.0185116
0.00520564
-0.0067313
-0.256417
0.00475395
-0.175405
-0.0582414
0.00869434
0.357652
0.0102209
0.960233
0.00327498
1.42963
-0.0107097
1.79305
-0.029562
2.13899
-0.0550321
2.49072
-0.0889516
2.88666
-0.134953
3.34634
-0.200597
3.87875
-0.318589
4.5804
-0.598053
5.12781
-1.0486
6.41349
-1.17216
6.71182
-1.1565
5.65825
-0.896254
3.98394
-0.26269
1.50316
-0.0703087
-0.187175
-0.0388321
-0.287893
-0.0143948
-0.199842
-0.0726362
0.0112882
0.346364
0.0156401
0.955881
0.0104849
1.43478
0.000301586
1.80323
-0.0180834
2.15737
-0.0423839
2.51502
-0.0754872
2.91976
-0.121575
3.39243
-0.187977
3.94516
-0.310447
4.70287
-0.597267
5.41463
-0.984907
6.80113
-1.0497
6.77661
-0.979674
5.58823
-0.67569
3.67995
-0.0697658
0.897234
0.0153719
-0.272313
0.000584996
-0.273107
-0.00153226
-0.197725
-0.0741684
0.0185382
0.327826
0.0303534
0.944066
0.0293796
1.43576
0.0183292
1.81428
0.000453879
2.17525
-0.0222535
2.53773
-0.0545992
2.95211
-0.0992538
3.43708
-0.164148
4.01005
-0.285988
4.82471
-0.566407
5.69505
-0.872903
7.10763
-0.907463
6.81117
-0.804877
5.48564
-0.44416
3.31924
0.068353
0.384721
0.078758
-0.282718
0.0582987
-0.252647
0.0223737
-0.1618
-0.0517947
0.0241787
0.303647
0.0420144
0.92623
0.0448793
1.43289
0.0381217
1.82104
0.0257099
2.18766
0.00424107
2.5592
-0.0254597
2.98181
-0.0673124
3.47894
-0.128957
4.07169
-0.244853
4.94061
-0.493679
5.94388
-0.714147
7.32809
-0.742924
6.83995
-0.63851
5.38123
-0.306208
2.98693
-0.000320762
0.078834
0.0188128
-0.301852
0.0296509
-0.263485
0.0148681
-0.147017
-0.0369267
0.0352404
0.268407
0.0655741
0.895896
0.0769433
1.42152
0.0737827
1.8242
0.0630497
2.19839
0.0439679
2.57828
0.0168161
3.00896
-0.0215105
3.51726
-0.0771056
4.12729
-0.177025
5.04053
-0.381136
6.14799
-0.537175
7.48413
-0.558724
6.86149
-0.460422
5.28293
-0.182613
2.70912
-0.0722268
-0.0315519
-0.0543152
-0.319763
-0.0214138
-0.296387
-0.00314208
-0.165289
-0.0400687
0.0446443
0.223762
0.0868911
0.85365
0.106806
1.40161
0.111291
1.81971
0.107035
2.20265
0.0929665
2.59235
0.0717777
3.03015
0.0399792
3.54906
-0.0102717
4.17754
-0.0854409
5.1157
-0.22217
6.28472
-0.311992
7.57396
-0.323089
6.87259
-0.265948
5.22579
-0.0755791
2.51876
-0.0912592
-0.0158719
-0.0697611
-0.341261
-0.0264264
-0.339721
0.00227345
-0.193989
-0.0377953
0.0582221
0.16554
0.121019
0.790852
0.15816
1.36447
0.170922
1.80695
0.171087
2.20248
0.161309
2.60212
0.146672
3.04479
0.124057
3.57168
0.0885903
4.21301
0.0406547
5.16363
-0.0155941
6.34097
-0.0485511
7.60691
-0.0513166
6.87536
-0.0179979
5.19247
0.0419059
2.45885
-0.0976915
0.123725
-0.0970285
-0.341924
-0.0418558
-0.394894
0.0140914
-0.249936
-0.0237039
0.0602793
0.105261
0.150734
0.700397
0.207005
1.3082
0.233971
1.77999
0.245792
2.19066
0.244804
2.60311
0.237951
3.05164
0.226222
3.5834
0.209058
4.23017
0.189287
5.1834
0.240565
6.28969
0.283808
7.56367
0.285254
6.87391
0.167925
5.3098
-0.0934293
2.72021
-0.351271
0.381567
-0.380243
-0.312952
-0.284109
-0.491028
-0.118474
-0.415571
-0.142177
0.0500784
0.0551824
0.184247
0.566228
0.280628
1.21182
0.326941
1.73367
0.34706
2.17054
0.35482
2.59535
0.355415
3.05105
0.357388
3.58143
0.360238
4.22732
0.375359
5.16828
0.521904
6.14314
0.667876
7.4177
0.658257
6.88353
0.467169
5.50089
-0.0446859
3.23206
-0.563615
0.900496
-0.670743
-0.205824
-0.522629
-0.639141
-0.276367
-0.661834
-0.418544
0.0344344
0.0207481
0.219145
0.381518
0.345459
1.0855
0.422933
1.6562
0.465337
2.12814
0.488191
2.5725
0.4957
3.04354
0.510928
3.5662
0.53899
4.19926
0.597993
5.10928
0.847823
5.89331
1.21946
7.04606
1.43668
6.66631
1.54118
5.39639
1.11444
3.6588
0.343505
1.67144
-0.205451
0.343131
-0.432352
-0.41224
-0.275931
-0.818255
-0.694475
0.0306932
-0.00994516
0.236596
0.175615
0.449172
0.872927
0.564346
1.54103
0.615267
2.07722
0.649357
2.53841
0.670878
3.02202
0.69618
3.5409
0.747037
4.1484
0.862105
4.99421
1.22802
5.52739
1.86286
6.41122
2.22904
6.30012
2.46829
5.15715
2.34498
3.7821
1.702
2.31442
1.02451
1.02063
0.431755
0.180512
0.113776
-0.500276
-0.580699
0.0248379
-0.034783
0.160803
0.039649
0.494832
0.538898
0.692578
1.34328
0.793706
1.97609
0.842629
2.48948
0.878458
2.98619
0.907229
3.51213
0.980861
4.07477
1.11939
4.85568
1.50993
5.13685
2.29504
5.62612
2.69067
5.9045
2.87323
4.97458
2.74332
3.91201
2.24234
2.81539
1.61088
1.65209
1.06069
0.730704
0.434557
0.125859
-0.146142
0.00338339
-0.0381664
0.0806913
-0.0376589
0.413965
0.205624
0.711776
1.04547
0.849638
1.83823
0.890934
2.44819
0.897659
2.97946
0.880966
3.52882
0.879759
4.07598
0.922648
4.81279
1.07821
4.98129
1.52185
5.18247
1.69993
5.72642
1.74129
4.93322
1.65665
3.99665
1.4194
3.05265
1.03167
2.03981
0.623044
1.13933
0.258331
0.490571
0.112189
0.00417044
-0.0423369
0.0454651
-0.0789536
0.220024
0.0310656
0.544856
0.720637
0.715456
1.66763
0.775467
2.38818
0.793159
2.96177
0.788576
3.53341
0.770371
4.09418
0.789422
4.79374
0.863772
4.90694
1.1632
4.88304
1.35156
5.53806
1.36383
4.92094
1.30189
4.0586
1.1393
3.21523
0.84865
2.33046
0.530807
1.45718
0.22469
0.796688
0.336879
0.0050743
-0.0474112
0.0236846
-0.0975639
0.0957499
-0.0409997
0.376903
0.439484
0.572795
1.47174
0.657618
2.30335
0.674286
2.9451
0.671686
3.53601
0.648111
4.11776
0.646863
4.79499
0.675645
4.87816
0.851343
4.70735
1.02945
5.35995
1.02663
4.92376
0.967355
4.11788
0.845139
3.33745
0.64036
2.53524
0.395842
1.70169
0.159367
1.03316
0.496246
-0.00544719
-0.041964
-0.00435992
-0.0986512
0.0295744
-0.074934
0.236223
0.232835
0.432907
1.27505
0.535966
2.2003
0.560711
2.92036
0.559596
3.53712
0.531681
4.14567
0.512442
4.81423
0.517856
4.87275
0.620136
4.60506
0.755473
5.22462
0.746603
4.93263
0.684703
4.17978
0.588486
3.43367
0.444369
2.67936
0.264341
1.88172
0.0963289
1.20118
0.592575
-0.0142424
-0.0277216
-0.0122279
-0.100666
0.0128312
-0.0999932
0.141277
0.104389