/*--------------------------------*- C++ -*----------------------------------*\
| =========                 |                                                 |
| \\      /  F ield         | OpenFOAM: The Open Source CFD Toolbox           |
|  \\    /   O peration     | Version:  v2012                                 |
|   \\  /    A nd           | Website:  www.openfoam.com                      |
|    \\/     M anipulation  |                                                 |
\*---------------------------------------------------------------------------*/
FoamFile
{
    version     2.0;
    format      ascii;
    class       volVectorField;
    location    "63";
    object      U;
}
// * * * * * * * * * * * * * * * * * * * * * * * * * * * * * * * * * * * * * //

dimensions      [0 1 -1 0 0 0 0];


internalField   nonuniform List<vector> 
2200
(
(0.878846 -0.0304103 0)
(1.00579 -0.0512774 0)
(1.00328 -0.035387 0)
(1.00028 -0.0244239 0)
(0.999895 -0.0166385 0)
(1.00004 -0.0107124 0)
(1.00002 -0.00681685 0)
(0.999982 -0.00418336 0)
(0.999917 -0.00216339 0)
(1.0002 -0.000594955 0)
(1.0001 0.00113977 0)
(1.00028 0.0026266 0)
(1.00033 0.00452953 0)
(1.00024 0.0071188 0)
(1.00015 0.0108491 0)
(1.00007 0.0166674 0)
(1.00037 0.0243758 0)
(1.00347 0.0348551 0)
(1.00599 0.0513822 0)
(0.879056 0.0302942 0)
(0.712028 -0.0327642 0)
(0.996654 -0.0630095 0)
(1.03333 -0.056156 0)
(1.02491 -0.0464212 0)
(1.01587 -0.0361099 0)
(1.00963 -0.0263646 0)
(1.00592 -0.0181272 0)
(1.0038 -0.0114006 0)
(1.00269 -0.00603331 0)
(1.00212 -0.00159985 0)
(1.00186 0.00249046 0)
(1.00208 0.00701447 0)
(1.00327 0.0123092 0)
(1.00548 0.0189004 0)
(1.00932 0.0272119 0)
(1.01543 0.0369583 0)
(1.02455 0.0474704 0)
(1.03315 0.0580186 0)
(0.996708 0.0631376 0)
(0.711774 0.0330386 0)
(0.535563 -0.0238927 0)
(0.969929 -0.0569303 0)
(1.05645 -0.0547239 0)
(1.05228 -0.0487518 0)
(1.0363 -0.0404263 0)
(1.02449 -0.0322633 0)
(1.01592 -0.0239809 0)
(1.0104 -0.0160951 0)
(1.00712 -0.00880674 0)
(1.00554 -0.00212034 0)
(1.00583 0.00435421 0)
(1.00746 0.0107957 0)
(1.01051 0.0177961 0)
(1.01583 0.0254642 0)
(1.02417 0.0334238 0)
(1.03621 0.0413935 0)
(1.05228 0.0493901 0)
(1.05632 0.0532334 0)
(0.969216 0.0576475 0)
(0.534405 0.0239372 0)
(0.392358 -0.0136451 0)
(0.911856 -0.0463783 0)
(1.05753 -0.0468792 0)
(1.06956 -0.0442786 0)
(1.05487 -0.0381409 0)
(1.03934 -0.0314571 0)
(1.02756 -0.0246712 0)
(1.0191 -0.0174486 0)
(1.01378 -0.00995307 0)
(1.01118 -0.00242891 0)
(1.01069 0.0050265 0)
(1.01283 0.0125596 0)
(1.01807 0.0198426 0)
(1.02652 0.0266924 0)
(1.03842 0.0331218 0)
(1.05394 0.0395953 0)
(1.06814 0.0456761 0)
(1.05547 0.0483247 0)
(0.909885 0.0470076 0)
(0.389914 0.0137808 0)
(0.307755 -0.00451347 0)
(0.846781 -0.0323769 0)
(1.04943 -0.0399234 0)
(1.07951 -0.0381738 0)
(1.06825 -0.033512 0)
(1.05172 -0.027898 0)
(1.03836 -0.022481 0)
(1.02812 -0.0164149 0)
(1.02099 -0.009517 0)
(1.01701 -0.00184409 0)
(1.0171 0.00613501 0)
(1.0208 0.0133459 0)
(1.02752 0.0197264 0)
(1.03736 0.0254124 0)
(1.05026 0.0303326 0)
(1.06669 0.0356537 0)
(1.07774 0.0400167 0)
(1.04733 0.0417475 0)
(0.842996 0.0329663 0)
(0.303729 0.00473871 0)
(0.264343 0.000101304 0)
(0.78908 -0.0200693 0)
(1.03346 -0.0314529 0)
(1.08361 -0.0320211 0)
(1.07734 -0.0287322 0)
(1.06088 -0.0238302 0)
(1.04724 -0.0193458 0)
(1.03638 -0.0142421 0)
(1.0286 -0.00816434 0)
(1.02429 -0.00121511 0)
(1.02362 0.00607875 0)
(1.02703 0.012855 0)
(1.03435 0.0186188 0)
(1.04501 0.0231472 0)
(1.05864 0.0271454 0)
(1.07489 0.0315679 0)
(1.08034 0.0342558 0)
(1.0292 0.0333539 0)
(0.782584 0.0207332 0)
(0.258715 0.000122026 0)
(0.240424 0.00107135 0)
(0.738484 -0.0122689 0)
(1.01378 -0.0249589 0)
(1.08412 -0.0267172 0)
(1.0831 -0.0244244 0)
(1.06789 -0.0202848 0)
(1.05433 -0.0162678 0)
(1.0434 -0.0117203 0)
(1.03512 -0.00632346 0)
(1.03003 0.000148768 0)
(1.02976 0.00691267 0)
(1.03413 0.0128212 0)
(1.0416 0.0174189 0)
(1.05176 0.0213798 0)
(1.06477 0.0247104 0)
(1.07947 0.0281419 0)
(1.0799 0.0297392 0)
(1.00753 0.0272618 0)
(0.728855 0.013157 0)
(0.233065 -0.000832375 0)
(0.226128 0.000960725 0)
(0.695654 -0.00802663 0)
(0.99322 -0.0207174 0)
(1.0823 -0.023084 0)
(1.0869 -0.0212327 0)
(1.07343 -0.0176647 0)
(1.06 -0.0138456 0)
(1.04945 -0.00955697 0)
(1.04155 -0.0045988 0)
(1.03679 0.00100462 0)
(1.03585 0.0069977 0)
(1.03889 0.0122029 0)
(1.04577 0.0166962 0)
(1.05582 0.0200633 0)
(1.0692 0.0230849 0)
(1.08191 0.0258168 0)
(1.07567 0.0267674 0)
(0.983277 0.0234521 0)
(0.681763 0.00912345 0)
(0.216611 -0.000712035 0)
(0.216571 0.0006228 0)
(0.660292 -0.00566116 0)
(0.972717 -0.0175951 0)
(1.0796 -0.0201528 0)
(1.09034 -0.018562 0)
(1.0783 -0.0154003 0)
(1.06488 -0.0117582 0)
(1.05431 -0.00753067 0)
(1.04625 -0.00264638 0)
(1.04099 0.0028429 0)
(1.04016 0.00813721 0)
(1.04408 0.0129678 0)
(1.05081 0.0164998 0)
(1.06013 0.0197816 0)
(1.07255 0.0224578 0)
(1.08342 0.0245944 0)
(1.07089 0.0250632 0)
(0.959215 0.0210268 0)
(0.641666 0.007077 0)
(0.204515 -0.00033475 0)
(0.209418 0.000299618 0)
(0.631806 -0.00420146 0)
(0.953953 -0.0149849 0)
(1.0766 -0.0179089 0)
(1.09348 -0.0165566 0)
(1.08303 -0.0135862 0)
(1.06965 -0.00991874 0)
(1.05928 -0.00587671 0)
(1.05163 -0.00126029 0)
(1.0468 0.00368618 0)
(1.04533 0.00882788 0)
(1.04732 0.0131397 0)
(1.0531 0.0170349 0)
(1.06249 0.0197647 0)
(1.0755 0.022172 0)
(1.08437 0.0239206 0)
(1.06382 0.0238512 0)
(0.93437 0.0191471 0)
(0.606691 0.00594322 0)
(0.194041 4.37466e-05 0)
(0.203593 8.51721e-05 0)
(0.608514 -0.00314017 0)
(0.935941 -0.012533 0)
(1.07345 -0.0155407 0)
(1.09688 -0.0143782 0)
(1.08777 -0.0115965 0)
(1.07415 -0.00806425 0)
(1.06327 -0.00394838 0)
(1.05496 0.000808204 0)
(1.04939 0.00599289 0)
(1.04786 0.0107214 0)
(1.05098 0.0148351 0)
(1.05718 0.0177036 0)
(1.06607 0.0204287 0)
(1.07798 0.0225491 0)
(1.08471 0.0237484 0)
(1.05715 0.0230564 0)
(0.910643 0.0176246 0)
(0.576428 0.00527957 0)
(0.184415 0.000321452 0)
(0.199084 1.14693e-05 0)
(0.590458 -0.00227536 0)
(0.920715 -0.0101928 0)
(1.07058 -0.0133735 0)
(1.10021 -0.0123033 0)
(1.09266 -0.00958039 0)
(1.07911 -0.0059624 0)
(1.0683 -0.00204742 0)
(1.06023 0.00243398 0)
(1.05481 0.00720662 0)
(1.05241 0.0120405 0)
(1.05354 0.0160245 0)
(1.0586 0.0193045 0)
(1.06772 0.0213218 0)
(1.08021 0.0229937 0)
(1.08442 0.0238405 0)
(1.0478 0.0225639 0)
(0.885823 0.0164272 0)
(0.548654 0.00492231 0)
(0.174919 0.000495171 0)
(0.195501 2.72026e-05 0)
(0.575707 -0.00155709 0)
(0.906125 -0.00810788 0)
(1.06778 -0.0110093 0)
(1.10382 -0.00989735 0)
(1.09766 -0.00714134 0)
(1.08393 -0.00358483 0)
(1.07237 0.000479902 0)
(1.06315 0.00514912 0)
(1.05666 0.0103294 0)
(1.05419 0.014908 0)
(1.05641 0.0184186 0)
(1.06215 0.0206384 0)
(1.07076 0.0225752 0)
(1.08165 0.0238879 0)
(1.08363 0.0242855 0)
(1.03892 0.0223806 0)
(0.862024 0.0155863 0)
(0.52355 0.00475148 0)
(0.165747 0.000580601 0)
(0.193437 6.437e-05 0)
(0.565307 -0.000759414 0)
(0.894994 -0.00587012 0)
(1.06562 -0.00867766 0)
(1.1075 -0.00743364 0)
(1.10286 -0.00459272 0)
(1.08914 -0.000851859 0)
(1.07762 0.00311517 0)
(1.06866 0.0076373 0)
(1.06208 0.012373 0)
(1.05831 0.0168644 0)
(1.05848 0.0204326 0)
(1.06283 0.0228982 0)
(1.0716 0.0241239 0)
(1.08272 0.0249918 0)
(1.08159 0.0249578 0)
(1.02671 0.0225336 0)
(0.836356 0.0150856 0)
(0.498947 0.00468949 0)
(0.156416 0.000619499 0)
(0.192594 0.000107478 0)
(0.557856 -0.000201425 0)
(0.884711 -0.00386572 0)
(1.06392 -0.00594516 0)
(1.11149 -0.00442419 0)
(1.10823 -0.00127835 0)
(1.09447 0.00260828 0)
(1.08217 0.00687446 0)
(1.07182 0.0116391 0)
(1.06365 0.0166393 0)
(1.05989 0.0209139 0)
(1.06098 0.0236421 0)
(1.06603 0.0251418 0)
(1.07418 0.0262999 0)
(1.08263 0.026737 0)
(1.07909 0.0262209 0)
(1.01496 0.0231246 0)
(0.811447 0.0149019 0)
(0.475783 0.00474094 0)
(0.147303 0.000640361 0)
(0.193222 8.81959e-05 0)
(0.553695 0.000857124 0)
(0.87863 -0.00151325 0)
(1.0635 -0.00330587 0)
(1.11608 -0.00142864 0)
(1.11417 0.00186441 0)
(1.10025 0.00603781 0)
(1.08772 0.0103788 0)
(1.07745 0.0150991 0)
(1.06944 0.0199644 0)
(1.06394 0.0241435 0)
(1.06242 0.026947 0)
(1.06546 0.0284223 0)
(1.07365 0.0288836 0)
(1.08262 0.029043 0)
(1.07436 0.0280305 0)
(0.999298 0.0240349 0)
(0.784034 0.0150862 0)
(0.451816 0.00489386 0)
(0.137741 0.000658946 0)
(0.19533 0.000244168 0)
(0.55398 0.00153314 0)
(0.87385 0.000572029 0)
(1.06419 -4.30046e-05 0)
(1.12119 0.00219953 0)
(1.12044 0.00595677 0)
(1.10648 0.0105059 0)
(1.09322 0.0155189 0)
(1.08159 0.020866 0)
(1.07138 0.0259817 0)
(1.0653 0.0297111 0)
(1.06465 0.0316641 0)
(1.06843 0.0326898 0)
(1.0756 0.0329418 0)
(1.08077 0.0322123 0)
(1.06918 0.030417 0)
(0.983802 0.0255254 0)
(0.756783 0.0156353 0)
(0.428189 0.00517296 0)
(0.128085 0.000687285 0)
(0.19955 0.000674352 0)
(0.556701 0.00236578 0)
(0.874285 0.00338992 0)
(1.06682 0.00342567 0)
(1.12723 0.00632822 0)
(1.12748 0.0103524 0)
(1.11304 0.0153784 0)
(1.09907 0.0205579 0)
(1.08683 0.0258924 0)
(1.07634 0.0309035 0)
(1.06865 0.0349619 0)
(1.06502 0.0369575 0)
(1.06607 0.0373717 0)
(1.07315 0.0366226 0)
(1.07916 0.0360754 0)
(1.06131 0.0334781 0)
(0.963616 0.0274119 0)
(0.726023 0.0165739 0)
(0.402511 0.00555082 0)
(0.117559 0.00071411 0)
(0.206004 0.000877967 0)
(0.56357 0.00348169 0)
(0.878138 0.00584122 0)
(1.07157 0.00758015 0)
(1.13411 0.0111007 0)
(1.13533 0.0158305 0)
(1.12065 0.0213659 0)
(1.10596 0.027433 0)
(1.0925 0.0337793 0)
(1.07998 0.0395828 0)
(1.07041 0.042787 0)
(1.06674 0.0436632 0)
(1.0685 0.0435324 0)
(1.07398 0.0431824 0)
(1.07501 0.0409384 0)
(1.05238 0.0374086 0)
(0.94305 0.0300858 0)
(0.694342 0.0178898 0)
(0.376006 0.00604306 0)
(0.106568 0.000749708 0)
(0.214454 0.00105982 0)
(0.574766 0.00477239 0)
(0.886428 0.00903471 0)
(1.07926 0.0122409 0)
(1.14259 0.0169336 0)
(1.14425 0.0223658 0)
(1.12869 0.0288984 0)
(1.11275 0.0353822 0)
(1.09758 0.0416562 0)
(1.08294 0.0467505 0)
(1.07172 0.050423 0)
(1.06583 0.0516903 0)
(1.06494 0.0510019 0)
(1.06943 0.0485701 0)
(1.0712 0.0468164 0)
(1.04019 0.0420913 0)
(0.916323 0.0330395 0)
(0.657735 0.0195044 0)
(0.346291 0.00655424 0)
(0.0943957 0.000766453 0)
(0.226889 0.00141538 0)
(0.593335 0.00670635 0)
(0.90168 0.0132979 0)
(1.09031 0.0183808 0)
(1.15284 0.0238943 0)
(1.15476 0.0303174 0)
(1.13818 0.0375918 0)
(1.12068 0.0450609 0)
(1.10369 0.0525184 0)
(1.08751 0.059057 0)
(1.07395 0.0622406 0)
(1.06645 0.0613979 0)
(1.06525 0.0597822 0)
(1.06867 0.0578257 0)
(1.06401 0.0539259 0)
(1.02591 0.0478164 0)
(0.888343 0.037137 0)
(0.618938 0.0214821 0)
(0.314789 0.00713268 0)
(0.0816074 0.00078444 0)
(0.242478 0.00194852 0)
(0.616221 0.00853165 0)
(0.922029 0.0178517 0)
(1.10561 0.0252387 0)
(1.16544 0.0326734 0)
(1.16674 0.0403312 0)
(1.14828 0.0491789 0)
(1.12874 0.0575398 0)
(1.10924 0.0651432 0)
(1.08935 0.0703563 0)
(1.07226 0.0720862 0)
(1.06357 0.0720529 0)
(1.06064 0.0697272 0)
(1.06142 0.0657935 0)
(1.05697 0.061989 0)
(1.00754 0.0544189 0)
(0.851991 0.041076 0)
(0.573065 0.0234995 0)
(0.279108 0.00759634 0)
(0.0675824 0.000771702 0)
(0.264685 0.00282175 0)
(0.649871 0.012366 0)
(0.951535 0.0249326 0)
(1.12555 0.0351477 0)
(1.18077 0.0436183 0)
(1.18104 0.0532666 0)
(1.16026 0.0630575 0)
(1.13787 0.0723736 0)
(1.11505 0.0805475 0)
(1.09268 0.0865722 0)
(1.07458 0.0891539 0)
(1.06278 0.086462 0)
(1.058 0.0823656 0)
(1.0589 0.07809 0)
(1.04533 0.0717237 0)
(0.985111 0.0618877 0)
(0.81328 0.046319 0)
(0.524431 0.0257843 0)
(0.2416 0.00799171 0)
(0.0532719 0.000752302 0)
(0.29583 0.00371888 0)
(0.694696 0.0154305 0)
(0.990199 0.0327985 0)
(1.15209 0.0465659 0)
(1.19987 0.0581367 0)
(1.19749 0.0698036 0)
(1.17304 0.0814443 0)
(1.14737 0.0916001 0)
(1.12148 0.099931 0)
(1.09521 0.104367 0)
(1.07137 0.103223 0)
(1.05758 0.0996384 0)
(1.05213 0.0952274 0)
(1.04803 0.0891199 0)
(1.03346 0.0821703 0)
(0.957803 0.0704614 0)
(0.763288 0.0509126 0)
(0.465493 0.0275029 0)
(0.199286 0.00804286 0)
(0.0379822 0.000645362 0)
(0.3323 0.00709469 0)
(0.752688 0.0247633 0)
(1.03953 0.0466083 0)
(1.18441 0.0646637 0)
(1.22248 0.0775618 0)
(1.21576 0.0923618 0)
(1.1866 0.104891 0)
(1.15652 0.115198 0)
(1.12556 0.122364 0)
(1.09458 0.125278 0)
(1.06995 0.123942 0)
(1.0546 0.118987 0)
(1.04645 0.111839 0)
(1.04302 0.104489 0)
(1.01509 0.0948295 0)
(0.922881 0.079038 0)
(0.708972 0.0565215 0)
(0.405348 0.0294015 0)
(0.157216 0.00793211 0)
(0.0240623 0.000590113 0)
(0.412429 0.0107086 0)
(0.840403 0.0357089 0)
(1.10594 0.0675743 0)
(1.22484 0.0903405 0)
(1.24949 0.106626 6.19936e-34)
(1.23571 0.123139 -2.7992e-34)
(1.20018 0.135567 0)
(1.16527 0.144562 0)
(1.13045 0.15014 0)
(1.09636 0.150746 0)
(1.06666 0.145535 0)
(1.0474 0.136461 0)
(1.03782 0.127953 0)
(1.0267 0.118461 0)
(0.995055 0.106721 0)
(0.882013 0.0885316 0)
(0.640392 0.0601715 0)
(0.329877 0.0291348 0)
(0.107847 0.00736742 0)
(0.0086486 0.000758787 0)
(0.483501 0.0258867 4.5361e-20)
(0.942708 0.0599692 -3.43724e-20)
(1.17688 0.101996 0)
(1.26648 0.129191 2.6726e-20)
(1.27802 0.144769 -2.16731e-20)
(1.25489 0.163319 2.95342e-34)
(1.21249 0.173907 0)
(1.17233 0.180818 1.57772e-20)
(1.13161 0.183471 -5.18393e-20)
(1.09109 0.180566 1.05932e-20)
(1.05791 0.171932 0)
(1.0386 0.16205 -2.6951e-20)
(1.0272 0.151335 -3.24141e-20)
(1.01638 0.140138 5.67639e-20)
(0.960595 0.124817 -4.48311e-20)
(0.814773 0.0978785 0)
(0.543931 0.0631917 -1.61203e-20)
(0.242433 0.0276753 0)
(0.0582224 0.00700576 -8.90644e-20)
(-0.00789726 0.000421473 1.04966e-19)
(0.519844 0.0537937 -5.98067e-21)
(1.0082 0.102489 1.01654e-19)
(1.22824 0.152723 -5.35228e-21)
(1.30064 0.177155 -6.51539e-20)
(1.30296 0.194682 -4.5813e-20)
(1.27078 0.211394 7.45417e-20)
(1.22189 0.219147 0)
(1.17596 0.22331 0)
(1.13003 0.223356 8.23809e-20)
(1.0858 0.217697 0)
(1.05002 0.207412 9.71342e-20)
(1.02552 0.194152 2.89187e-20)
(1.00889 0.180288 5.01928e-22)
(0.982655 0.164853 -6.15938e-20)
(0.918278 0.14362 0)
(0.750023 0.112112 0)
(0.466142 0.0663291 -2.62427e-19)
(0.183211 0.0258213 6.59934e-19)
(0.0259895 0.00503307 -3.90091e-19)
(-0.0195871 -0.00141708 -4.59425e-19)
(0.527026 0.0765121 -5.54438e-20)
(1.04375 0.159689 2.15092e-20)
(1.26417 0.212891 1.19963e-20)
(1.32728 0.236368 1.13349e-19)
(1.32257 0.252469 1.45847e-20)
(1.283 0.264675 -1.93972e-19)
(1.22843 0.268395 6.62962e-20)
(1.17734 0.269016 0)
(1.12607 0.265366 -1.74012e-19)
(1.07609 0.255947 1.54931e-19)
(1.03407 0.24134 -2.62137e-19)
(1.0058 0.22375 1.22909e-19)
(0.988367 0.208071 -7.96876e-20)
(0.964908 0.192751 1.79651e-19)
(0.884577 0.16827 0)
(0.702895 0.125449 -6.54526e-20)
(0.418934 0.0712357 0)
(0.162416 0.0263292 3.60085e-19)
(0.0160795 0.00352093 -8.53241e-19)
(-0.0238616 -0.00330672 5.34207e-19)
(0.523745 0.108158 1.46377e-19)
(1.06702 0.217434 -6.48811e-20)
(1.28731 0.278661 -1.40944e-20)
(1.34479 0.301292 0)
(1.33496 0.31498 -8.40947e-20)
(1.29011 0.322025 1.03873e-19)
(1.23084 0.320924 -7.08404e-20)
(1.17468 0.317282 0)
(1.11838 0.309805 1.23603e-19)
(1.06417 0.296473 -1.08807e-19)
(1.01863 0.277134 2.26632e-19)
(0.989241 0.257591 0)
(0.967557 0.240168 -1.69283e-19)
(0.931611 0.219079 9.54101e-20)
(0.851085 0.188481 2.40086e-19)
(0.670021 0.141561 -2.11245e-19)
(0.399755 0.0804415 3.33664e-19)
(0.158906 0.0299066 -7.37958e-19)
(0.0155447 0.00310294 4.66837e-19)
(-0.0249912 -0.00508891 -5.8397e-19)
(0.51052 0.132169 -4.52032e-20)
(1.07153 0.269946 3.20651e-20)
(1.29706 0.343703 -4.70301e-20)
(1.35384 0.366947 9.62816e-20)
(1.34093 0.378723 -9.24119e-20)
(1.29251 0.380558 3.2523e-20)
(1.2296 0.374732 3.74819e-21)
(1.16972 0.366847 -1.38939e-19)
(1.10971 0.354616 -1.29228e-19)
(1.05152 0.336273 -2.33198e-19)
(1.00232 0.313482 -4.87268e-19)
(0.966911 0.291317 -1.50369e-19)
(0.943227 0.270807 2.21353e-21)
(0.914118 0.248944 -3.26524e-19)
(0.826808 0.217083 -5.22742e-21)
(0.647616 0.159697 3.073e-19)
(0.392431 0.091761 -9.22823e-20)
(0.16332 0.0365057 -5.34386e-20)
(0.0224444 0.00394509 0)
(-0.0225455 -0.00579455 1.2416e-18)
(0.494975 0.153454 0)
(1.06895 0.321095 -8.14042e-22)
(1.30032 0.407797 0)
(1.35626 0.431178 -1.29318e-20)
(1.34079 0.441455 8.83952e-20)
(1.28988 0.438992 -7.63268e-20)
(1.22428 0.428762 7.70853e-20)
(1.16132 0.416283 2.28252e-19)
(1.09793 0.399822 -7.19111e-20)
(1.03577 0.377253 1.14978e-19)
(0.981707 0.349917 2.61904e-19)
(0.946168 0.324439 3.27891e-19)
(0.920642 0.302678 -1.97598e-19)
(0.87987 0.276832 3.53685e-19)
(0.798185 0.23789 -2.80319e-19)
(0.627864 0.1811 0)
(0.38824 0.106821 -7.00761e-19)
(0.173109 0.0455433 9.43224e-19)
(0.0338108 0.00770135 7.03956e-20)
(-0.017569 -0.00553517 -1.31349e-18)
(0.478594 0.172897 -5.10703e-21)
(1.05761 0.367459 -2.35221e-20)
(1.29611 0.467664 4.72834e-20)
(1.35337 0.493012 -7.20203e-20)
(1.33613 0.50267 7.44037e-20)
(1.28355 0.495944 -7.33605e-20)
(1.21602 0.481572 1.52063e-19)
(1.15063 0.46518 -6.80181e-20)
(1.08389 0.444474 -2.9021e-19)
(1.01746 0.417403 -2.84763e-22)
(0.961194 0.38645 -2.84971e-19)
(0.922327 0.359095 -3.53064e-19)
(0.893717 0.33275 2.18422e-19)
(0.861356 0.306769 -1.27255e-19)
(0.775877 0.268216 3.05136e-19)
(0.612356 0.200818 0)
(0.386575 0.123265 -4.35753e-19)
(0.18255 0.055881 6.43608e-19)
(0.0450284 0.0128318 1.21718e-18)
(-0.012109 -0.00455743 -1.43144e-18)
(0.46528 0.191012 -9.13099e-20)
(1.0476 0.413601 4.02673e-20)
(1.2898 0.526169 -2.82022e-20)
(1.34681 0.552282 7.39815e-20)
(1.32792 0.560866 1.21804e-20)
(1.27398 0.550821 -1.43197e-19)
(1.20463 0.533134 -8.86326e-20)
(1.13684 0.512965 -8.77755e-20)
(1.0676 0.488503 -1.64313e-19)
(0.999427 0.457529 2.64284e-19)
(0.941223 0.422363 2.87695e-19)
(0.900254 0.390666 5.60195e-19)
(0.870275 0.3637 0)
(0.827665 0.334609 6.48979e-21)
(0.749384 0.288712 -8.39325e-19)
(0.595779 0.223511 1.96993e-19)
(0.384227 0.139844 9.45838e-19)
(0.190967 0.0674444 -2.7914e-19)
(0.0558971 0.0190751 5.79131e-19)
(-0.00648439 -0.00290917 -4.8253e-20)
(0.453372 0.208001 5.82916e-21)
(1.03279 0.454341 5.92043e-20)
(1.27926 0.580034 -7.33713e-21)
(1.3372 0.608691 7.26767e-20)
(1.31698 0.617124 -1.39601e-19)
(1.26196 0.603685 1.4159e-19)
(1.19138 0.582614 9.17265e-20)
(1.12231 0.559073 2.61569e-19)
(1.05127 0.530863 3.28989e-19)
(0.979801 0.495589 -3.06071e-19)
(0.918017 0.457305 0)
(0.874237 0.423182 -2.1242e-19)
(0.843408 0.392285 2.43883e-19)
(0.809756 0.36163 3.08224e-19)
(0.728681 0.318678 -1.78395e-19)
(0.580863 0.242794 -4.33727e-19)
(0.38088 0.156732 -1.29223e-19)
(0.19718 0.0791049 -1.99132e-21)
(0.0647795 0.025685 0)
(-0.00155192 -0.0010305 0)
(0.445477 0.224529 -8.45354e-20)
(1.02197 0.495818 0)
(1.26851 0.632655 7.93384e-21)
(1.32563 0.662453 -1.62156e-20)
(1.30424 0.669758 1.60615e-19)
(1.24843 0.653674 -4.03969e-20)
(1.17686 0.630075 9.31904e-20)
(1.10633 0.603482 -1.76741e-19)
(1.0333 0.572264 2.49455e-19)
(0.959969 0.534021 -1.01313e-19)
(0.896398 0.492227 1.65147e-19)
(0.852265 0.453581 6.7434e-19)
(0.819557 0.422037 1.43548e-20)
(0.776502 0.388289 -3.21772e-19)
(0.703293 0.336509 5.95969e-19)
(0.563365 0.265093 3.57237e-21)
(0.375457 0.172411 1.3825e-19)
(0.200304 0.0907161 -6.59065e-19)
(0.0708586 0.0317877 6.79167e-19)
(0.00229457 0.000790302 -8.00112e-19)
(0.437759 0.241008 2.46835e-23)
(1.008 0.532026 0)
(1.25524 0.680447 0)
(1.31245 0.713247 1.83146e-21)
(1.29018 0.720464 -4.64274e-20)
(1.23372 0.701625 6.55538e-20)
(1.16145 0.675214 -1.723e-19)
(1.09012 0.645868 0)
(1.01555 0.611708 -3.6816e-19)
(0.939561 0.569943 4.43841e-19)
(0.872921 0.524433 4.72298e-19)
(0.825906 0.483564 -2.47615e-19)
(0.792495 0.447956 -3.00293e-19)
(0.758418 0.411891 7.04397e-19)
(0.681753 0.364649 -2.11977e-19)
(0.546188 0.281477 -2.52625e-19)
(0.366919 0.18707 -1.51053e-19)
(0.199591 0.100319 -7.12282e-19)
(0.0739106 0.0368947 1.04421e-19)
(0.00499912 0.00229165 8.66348e-19)
(0.432938 0.258632 -4.08776e-20)
(0.997995 0.569507 -5.49645e-20)
(1.24264 0.727217 2.37304e-20)
(1.29854 0.761357 -2.02422e-22)
(1.27553 0.767385 -5.14454e-20)
(1.21861 0.746419 1.03422e-19)
(1.1457 0.718104 0)
(1.0732 0.686415 1.07245e-19)
(0.996884 0.649875 -8.45631e-20)
(0.919475 0.605811 7.41285e-19)
(0.85108 0.557518 -1.0668e-19)
(0.803301 0.51283 1.22725e-19)
(0.768732 0.475235 0)
(0.725538 0.435871 -3.81551e-19)
(0.655689 0.377835 4.6248e-19)
(0.527001 0.300511 0)
(0.35669 0.199199 -3.25233e-19)
(0.196306 0.108432 9.57341e-19)
(0.0740231 0.0407842 1.13797e-19)
(0.0064373 0.00327116 -1.06801e-18)
(0.42949 0.27576 -1.01801e-19)
(0.986016 0.602123 1.29615e-19)
(1.22852 0.769258 0)
(1.28402 0.806358 2.37638e-20)
(1.26036 0.812517 0)
(1.20289 0.789408 -1.36372e-19)
(1.12947 0.758765 0)
(1.05635 0.724834 0)
(0.978801 0.68605 -1.12761e-19)
(0.898925 0.639379 -7.04832e-19)
(0.827327 0.587574 -8.73547e-19)
(0.776428 0.539796 1.43911e-19)
(0.741115 0.497905 5.1994e-19)
(0.707002 0.455453 4.2067e-19)
(0.633808 0.402406 -1.48433e-18)
(0.50811 0.311469 -5.93576e-19)
(0.344521 0.209824 3.47996e-19)
(0.190437 0.114467 0)
(0.0723784 0.0430206 9.75948e-19)
(0.00683551 0.00390867 -1.15122e-18)
(0.427684 0.291324 1.20567e-19)
(0.977494 0.63601 -1.49783e-19)
(1.21559 0.810666 0)
(1.26944 0.848861 -1.13062e-20)
(1.24514 0.853941 -3.89632e-21)
(1.18734 0.829173 0)
(1.11352 0.797122 5.3291e-20)
(1.03953 0.761461 7.49492e-20)
(0.960617 0.720945 -2.11597e-19)
(0.879507 0.672582 9.32369e-20)
(0.806177 0.618271 0)
(0.753702 0.567525 5.96485e-19)
(0.717166 0.522747 5.93442e-21)
(0.67343 0.476206 2.27047e-19)
(0.607689 0.409404 2.69393e-19)
(0.487881 0.325287 0)
(0.331876 0.216699 -5.66877e-19)
(0.183112 0.118535 1.11054e-18)
(0.0695905 0.0441626 -1.17781e-18)
(0.00655499 0.00420964 2.47918e-18)
(0.426062 0.306179 0)
(0.966875 0.665121 0)
(1.20178 0.847423 -7.38602e-20)
(1.2548 0.88834 0)
(1.22989 0.893766 0)
(1.17162 0.867394 -1.09892e-19)
(1.0975 0.833466 5.4517e-20)
(1.0232 0.796015 1.78294e-20)
(0.943307 0.753896 -4.81903e-20)
(0.859486 0.703689 0)
(0.782416 0.646862 -1.3348e-19)
(0.726349 0.592642 -4.86611e-19)
(0.687664 0.541877 -5.86604e-19)
(0.654015 0.49071 -2.36077e-19)
(0.585127 0.429308 2.91718e-19)
(0.468579 0.329016 -6.87201e-19)
(0.319174 0.221286 1.22012e-18)
(0.17554 0.119715 1.61196e-21)
(0.0663168 0.0447259 -1.12687e-18)
(0.00619812 0.00448969 -1.67208e-19)
(0.424977 0.320375 0)
(0.959328 0.695941 -1.21309e-19)
(1.1894 0.883995 8.96718e-20)
(1.24046 0.925707 0)
(1.21497 0.930129 0)
(1.15652 0.902455 2.18836e-19)
(1.08228 0.867539 0)
(1.00733 0.828897 0)
(0.926106 0.785613 -4.64793e-19)
(0.840893 0.734308 1.29685e-19)
(0.762158 0.675592 -1.18358e-18)
(0.703665 0.618167 0)
(0.663342 0.565362 -6.38494e-19)
(0.618575 0.508104 1.02246e-20)
(0.557421 0.428298 -9.39244e-19)
(0.448143 0.335448 3.69552e-19)
(0.307713 0.22054 1.25237e-21)
(0.171475 0.117592 -1.27009e-18)
(0.0645627 0.0430329 6.0629e-19)
(0.00429028 0.00235824 1.78852e-19)
(0.423706 0.334369 0)
(0.949964 0.722247 -1.65107e-19)
(1.17644 0.916143 9.44383e-20)
(1.22643 0.960246 1.30384e-19)
(1.20038 0.965112 -7.18253e-21)
(1.14158 0.936249 2.17099e-20)
(1.06719 0.899868 -3.11502e-20)
(0.992031 0.859823 4.40405e-19)
(0.90988 0.815409 4.97196e-19)
(0.822062 0.762942 9.8702e-19)
(0.739283 0.702863 9.83374e-19)
(0.676211 0.642471 1.73241e-19)
(0.631586 0.58267 9.1839e-19)
(0.596672 0.517887 5.67979e-19)
(0.531907 0.442507 6.74032e-19)
(0.428326 0.32819 -4.04334e-19)
(0.2956 0.213338 -4.66135e-19)
(0.171612 0.114277 5.47261e-19)
(0.071706 0.0503119 -3.25942e-19)
(0.0114081 0.0115625 5.79582e-19)
(0.422842 0.347865 2.30886e-19)
(0.943434 0.75036 2.58791e-19)
(1.16494 0.948562 5.42926e-20)
(1.21286 0.993079 1.56134e-20)
(1.18632 0.996935 -1.09565e-20)
(1.12746 0.967018 -6.04342e-20)
(1.05312 0.929983 2.97743e-20)
(0.977395 0.889191 -1.92863e-20)
(0.893973 0.844078 -5.79379e-19)
(0.804836 0.791147 -1.07151e-18)
(0.720026 0.729957 6.82726e-20)
(0.653664 0.666686 0)
(0.606655 0.605741 0)
(0.557 0.534069 -2.96403e-19)
(0.49872 0.432376 -1.10537e-18)
(0.405835 0.322841 8.71051e-19)
(0.292992 0.19503 5.10412e-19)
(0.182979 0.0937387 0)
(0.0884147 0.0210519 1.04317e-18)
(0.00525972 -0.0150718 -6.17839e-19)
(0.421781 0.360963 -1.22512e-19)
(0.935184 0.773917 1.0811e-19)
(1.15292 0.976672 -1.29839e-19)
(1.19977 1.02324 -1.08546e-19)
(1.17278 1.02756 -1.96926e-20)
(1.11364 0.99676 -1.9306e-20)
(1.0392 0.958597 0)
(0.963351 0.916754 -5.53864e-19)
(0.879217 0.870909 7.01869e-20)
(0.787725 0.817316 0)
(0.698781 0.75589 0)
(0.627063 0.69152 1.11059e-19)
(0.572208 0.62316 1.49401e-19)
(0.530477 0.540784 -3.2065e-19)
(0.466298 0.44294 7.93319e-19)
(0.377141 0.300174 -9.49536e-19)
(0.275082 0.170023 -1.09486e-18)
(0.203444 0.0812479 9.70241e-19)
(0.155574 0.0724552 -3.70823e-19)
(0.110889 0.0759262 2.15728e-19)
(0.421047 0.373195 1.52322e-19)
(0.929426 0.799251 0)
(1.14232 1.0054 0)
(1.18718 1.05203 -3.03751e-20)
(1.15977 1.05532 2.45905e-20)
(1.10068 1.02363 -1.9966e-20)
(1.0264 0.985065 1.35736e-19)
(0.950156 0.94286 5.6672e-19)
(0.86493 0.896728 1.05184e-18)
(0.77218 0.843215 -8.10174e-20)
(0.681021 0.781657 1.67872e-19)
(0.605423 0.715557 -9.94692e-19)
(0.547429 0.647436 -9.93791e-19)
(0.484962 0.559858 -1.72468e-19)
(0.418473 0.42615 0)
(0.340719 0.290253 -4.84232e-21)
(0.256051 0.0969329 6.04563e-19)
(0.246081 -0.0224169 -1.01489e-18)
(0.212395 -0.106346 7.71179e-19)
(0.0878903 -0.0989765 6.38313e-19)
(0.419893 0.385158 -3.35976e-19)
(0.921845 0.820035 -1.51196e-19)
(1.1311 1.02994 6.91784e-21)
(1.175 1.07847 6.06003e-20)
(1.1472 1.08234 0)
(1.08785 1.05007 -5.1665e-20)
(1.01351 1.01074 -1.96858e-19)
(0.937196 0.967884 -2.10804e-21)
(0.851414 0.921462 -5.511e-19)
(0.756497 0.867727 -7.95836e-20)
(0.661427 0.806954 7.39209e-20)
(0.580016 0.742421 8.74009e-19)
(0.50965 0.66798 9.69381e-19)
(0.452002 0.566657 1.68433e-19)
(0.377252 0.444611 8.59591e-19)
(0.277233 0.255505 0)
(0.150581 0.0793311 0)
(-0.00893249 0.180308 6.94012e-19)
(-0.0786873 0.629943 -2.74931e-20)
(0.00926882 1.54339 -8.60668e-19)
(0.419169 0.396328 1.8534e-19)
(0.916659 0.84301 4.26473e-19)
(1.12123 1.05579 -5.89416e-19)
(1.16317 1.10426 2.99707e-19)
(1.13492 1.10725 -1.03331e-20)
(1.07561 1.07443 -2.39958e-21)
(1.00147 1.03515 0)
(0.924797 0.992522 -4.71993e-19)
(0.837944 0.946498 0)
(0.741787 0.89377 1.11875e-18)
(0.644084 0.83426 -9.05574e-20)
(0.557881 0.769404 1.01543e-19)
(0.485024 0.698437 1.11598e-18)
(0.397107 0.600357 -3.6601e-19)
(0.286427 0.429684 -4.36465e-19)
(0.185791 0.30615 0)
(0.0763 0.467111 0)
(0.0246942 1.35598 0)
(0.0712297 2.47184 -3.93925e-19)
(0.0978382 2.91482 -2.43246e-19)
(0.417688 0.407031 0)
(0.909564 0.86127 0)
(1.1107 1.07736 2.14633e-19)
(1.15181 1.12781 -2.43902e-19)
(1.12318 1.13169 1.12628e-19)
(1.06359 1.09872 1.10899e-20)
(0.989329 1.05914 2.57831e-20)
(0.912598 1.0164 -2.00738e-20)
(0.825333 0.970756 7.82331e-20)
(0.72723 0.918604 -1.28399e-18)
(0.62582 0.860828 1.63931e-19)
(0.533885 0.800936 8.78308e-19)
(0.44371 0.727246 -1.11129e-18)
(0.35956 0.609038 -1.22723e-18)
(0.264843 0.487021 4.12284e-19)
(0.181888 0.630862 0)
(0.114396 1.58297 5.62486e-19)
(0.118875 2.69992 6.08389e-19)
(0.126332 3.09015 -6.79776e-19)
(0.118967 3.22324 7.24877e-19)
(0.416719 0.41745 0)
(0.904891 0.881977 3.73909e-19)
(1.10159 1.10064 -5.37857e-20)
(1.14084 1.15094 3.38031e-19)
(1.11175 1.15408 -1.18221e-19)
(1.05223 1.12085 0)
(0.978221 1.08169 0)
(0.901213 1.03968 0)
(0.813052 0.995076 4.38193e-19)
(0.713969 0.94487 5.90391e-20)
(0.609851 0.889829 0)
(0.512724 0.830454 -8.72929e-19)
(0.42631 0.762273 0)
(0.304227 0.654724 8.78027e-19)
(0.200893 0.705177 -5.94883e-19)
(0.146334 1.46553 -4.76886e-19)
(0.150098 2.68665 -1.09952e-18)
(0.173411 3.12619 -5.77992e-19)
(0.164021 3.26561 -7.78088e-19)
(0.150991 3.30582 5.69631e-19)
(0.415114 0.426836 -1.30227e-19)
(0.898195 0.897741 1.49286e-20)
(1.09176 1.11943 -5.96761e-20)
(1.13041 1.17184 -2.61955e-19)
(1.10094 1.17615 0)
(1.04115 1.14312 0)
(0.966995 1.10401 0)
(0.889986 1.0623 3.32824e-20)
(0.801623 1.0186 -5.5419e-19)
(0.700865 0.969671 0)
(0.593917 0.917153 0)
(0.493923 0.865419 0)
(0.382508 0.79284 0)
(0.308847 0.746832 6.44439e-19)
(0.266558 1.14342 1.58157e-18)
(0.239854 2.39814 4.64804e-19)
(0.256485 3.08181 9.30899e-19)
(0.251138 3.27931 -7.13138e-19)
(0.202825 3.34473 2.61294e-19)
(0.171058 3.35785 0)
(0.413976 0.436086 1.33852e-19)
(0.893874 0.916916 -8.28192e-19)
(1.08322 1.14107 -2.23309e-19)
(1.12008 1.19321 -4.94617e-20)
(1.09016 1.19685 2.74417e-20)
(1.03049 1.16374 -1.06761e-19)
(0.956676 1.12531 -1.14325e-21)
(0.879514 1.08467 -3.65477e-19)
(0.790451 1.0425 0)
(0.689222 0.996289 -7.55702e-20)
(0.580452 0.947868 6.87469e-20)
(0.475226 0.895482 0)
(0.381852 0.836636 0)
(0.321065 0.937997 -8.07381e-19)
(0.267161 1.85278 1.00977e-19)
(0.263588 2.94473 -3.49582e-19)
(0.2882 3.28259 7.3087e-19)
(0.259698 3.38081 5.24618e-19)
(0.195109 3.40535 -7.10212e-19)
(0.170688 3.41545 3.50625e-19)
(0.411902 0.445593 2.62312e-19)
(0.886553 0.931906 8.06078e-19)
(1.07291 1.15921 2.68591e-19)
(1.10946 1.21377 0)
(1.07927 1.21882 0)
(1.0194 1.18602 8.28505e-20)
(0.945506 1.1477 5.63843e-20)
(0.868539 1.10748 3.25493e-19)
(0.779644 1.0664 2.14828e-20)
(0.677242 1.02186 9.63238e-19)
(0.567044 0.976241 -1.14676e-18)
(0.456493 0.929059 0)
(0.378262 0.913536 0)
(0.333528 1.31224 -5.5068e-19)
(0.329735 2.49488 -6.61445e-19)
(0.374165 3.19486 0)
(0.399121 3.36329 -7.39164e-19)
(0.328512 3.42611 5.0148e-20)
(0.26014 3.47157 3.42241e-19)
(0.238009 3.497 -1.11818e-19)
(0.410128 0.455418 -4.98503e-19)
(0.881614 0.953138 -3.86755e-19)
(1.06329 1.18308 0)
(1.0979 1.23678 0)
(1.06734 1.24079 0)
(1.0078 1.20769 0)
(0.934552 1.16998 -6.77388e-20)
(0.857726 1.13082 2.83744e-19)
(0.768476 1.09135 0)
(0.666516 1.04988 -8.76765e-19)
(0.556109 1.00896 2.058e-18)
(0.446224 0.969813 8.43406e-20)
(0.395679 1.03513 1.13569e-19)
(0.385236 1.74366 8.97234e-19)
(0.396227 2.90169 -4.82758e-19)
(0.435898 3.31458 0)
(0.419063 3.43617 2.07767e-19)
(0.333347 3.52518 9.11894e-20)
(0.25944 3.58922 1.48465e-19)
(0.183986 3.56868 -1.43476e-20)
(0.407131 0.465798 2.36874e-19)
(0.872329 0.969034 -3.9396e-19)
(1.05097 1.20242 0)
(1.08566 1.25893 -7.24374e-20)
(1.05496 1.26454 2.49858e-19)
(0.995371 1.23163 0)
(0.922234 1.1938 0)
(0.845969 1.15488 -4.91898e-19)
(0.757486 1.11636 -5.5914e-20)
(0.655186 1.07653 8.59901e-19)
(0.541867 1.03771 -9.77699e-19)
(0.450692 1.01852 5.74342e-19)
(0.411491 1.22282 0)
(0.420069 2.18694 -4.75771e-19)
(0.46236 3.14318 3.12002e-19)
(0.527152 3.41669 1.9603e-19)
(0.518282 3.51222 0)