/*--------------------------------*- C++ -*----------------------------------*\
| =========                 |                                                 |
| \\      /  F ield         | OpenFOAM: The Open Source CFD Toolbox           |
|  \\    /   O peration     | Version:  v2012                                 |
|   \\  /    A nd           | Website:  www.openfoam.com                      |
|    \\/     M anipulation  |                                                 |
\*---------------------------------------------------------------------------*/
FoamFile
{
    version     2.0;
    format      ascii;
    class       surfaceScalarField;
    location    "57";
    object      phi;
}
// * * * * * * * * * * * * * * * * * * * * * * * * * * * * * * * * * * * * * //

dimensions      [0 3 -1 0 0 0 0];
oriented        oriented;


internalField   nonuniform List<scalar> 
4262
(
0.107137
0.470851
0.0955631
0.70516
0.0693794
0.858487
0.0473844
1.02076
0.0310173
1.21488
0.0198001
1.44944
0.0123811
1.73328
0.00715384
2.07626
0.00318887
2.48921
-0.000507327
2.98599
-0.00410327
2.98589
-0.00787399
2.48901
-0.0128944
2.07606
-0.0200891
1.73306
-0.0310669
1.4492
-0.0471489
1.2146
-0.0689105
1.02053
-0.0951886
0.858581
-0.107063
0.705461
0.470925
0.112883
0.357969
0.135319
0.682723
0.120439
0.873366
0.0978869
1.04331
0.0746436
1.23813
0.0529123
1.47117
0.0345097
1.75169
0.0203187
2.09045
0.00908673
2.50044
-0.00101281
2.99609
-0.011249
2.99612
-0.0224679
2.50023
-0.0365089
2.0901
-0.0547682
1.75132
-0.076579
1.47101
-0.100309
1.23833
-0.123479
1.0437
-0.137004
0.872106
-0.113559
0.682015
0.357366
0.0920285
0.26594
0.124937
0.649814
0.121046
0.877258
0.104774
1.05958
0.0861111
1.25679
0.0669943
1.49028
0.0480479
1.77063
0.0299809
2.10852
0.0133675
2.51705
-0.00262304
3.01208
-0.0181886
3.01169
-0.0341762
2.51622
-0.0517394
2.10766
-0.0701606
1.76974
-0.0884847
1.48933
-0.105699
1.25554
-0.119806
1.0578
-0.125202
0.877503
-0.0923317
0.649145
0.265034
0.0640419
0.201899
0.104932
0.608924
0.106745
0.875445
0.0953747
1.07095
0.0814383
1.27073
0.0666801
1.50504
0.0505279
1.78678
0.0333565
2.12569
0.015742
2.53467
-0.00289861
3.03072
-0.0215249
3.03032
-0.0389384
2.53363
-0.055384
2.12411
-0.0706607
1.78502
-0.0845091
1.50318
-0.0982276
1.26926
-0.109993
1.06957
-0.107033
0.874543
-0.0649046
0.607017
0.200129
0.0374789
0.16442
0.0806944
0.565708
0.0909689
0.865171
0.083761
1.07816
0.071178
1.28331
0.0593692
1.51685
0.0464152
1.79974
0.031474
2.14063
0.0144132
2.55173
-0.0048693
3.05
-0.0235238
3.04897
-0.0394373
2.54955
-0.0534049
2.13807
-0.0655038
1.79711
-0.0767167
1.51439
-0.0886078
1.28115
-0.09499
1.07595
-0.0831559
0.862708
-0.0383761
0.562237
0.161753
0.0194512
0.144968
0.0572023
0.527957
0.0726131
0.84976
0.070513
1.08026
0.0617101
1.29211
0.0508308
1.52773
0.0396668
1.8109
0.0270644
2.15324
0.0120853
2.56671
-0.00536256
3.06745
-0.0226919
3.0663
-0.0370312
2.56389
-0.0485292
2.14957
-0.0586193
1.8072
-0.0685823
1.52436
-0.0762938
1.28886
-0.0771423
1.0768
-0.0599969
0.845563
-0.0203756
0.522616
0.141378
0.0106444
0.134324
0.0424098
0.496192
0.0585616
0.833608
0.0588603
1.07996
0.0527109
1.29826
0.0432991
1.53714
0.0328946
1.82131
0.0215579
2.16457
0.00828373
2.57998
-0.00779448
3.08353
-0.0231344
3.08164
-0.0349691
2.57572
-0.0448005
2.1594
-0.0536053
1.81601
-0.0614922
1.53224
-0.0660683
1.29344
-0.0641808
1.07491
-0.0458554
0.827238
-0.0116889
0.488449
0.129689
0.00658833
0.127736
0.032998
0.469782
0.0492925
0.817314
0.0508072
1.07845
0.0457312
1.30334
0.037404
1.54547
0.0277563
1.83095
0.0168135
2.17552
0.00474116
2.59205
-0.00892945
3.0972
-0.0223008
3.09501
-0.033233
2.58665
-0.0425494
2.16872
-0.050362
1.82382
-0.0569404
1.53882
-0.0601275
1.29663
-0.0564
1.07118
-0.0372336
0.808071
-0.00787397
0.459089
0.121815
0.00472001
0.123016
0.0265921
0.44791
0.0424316
0.801474
0.0445943
1.07628
0.0400175
1.30791
0.0324132
1.55307
0.0233175
1.84005
0.0128224
2.18601
0.00112885
2.60375
-0.0121207
3.11045
-0.024198
3.10709
-0.0338898
2.59635
-0.0420985
2.17693
-0.048878
1.8306
-0.054197
1.54414
-0.056448
1.29888
-0.0514992
1.06624
-0.0319171
0.788489
-0.006347
0.433519
0.115468
0.00378438
0.119231
0.0218061
0.429889
0.03701
0.78627
0.0397647
1.07353
0.0353866
1.31229
0.0280292
1.56043
0.0192489
1.84883
0.00912534
2.19613
-0.00218489
2.61506
-0.0141896
3.12245
-0.0255913
3.11849
-0.0350702
2.60582
-0.0425139
2.18437
-0.0484845
1.83657
-0.0532039
1.54886
-0.0544668
1.30014
-0.048087
1.05986
-0.0281861
0.768588
-0.00572913
0.411062
0.109739
0.00306556
0.116166
0.0175982
0.415356
0.0315757
0.772293
0.0345697
1.07054
0.0304591
1.3164
0.0233532
1.56754
0.014892
1.85729
0.00508025
2.20595
-0.00617574
2.62631
-0.018473
3.13475
-0.0294145
3.12943
-0.0374927
2.6139
-0.0439807
2.19086
-0.0492146
1.84181
-0.0530176
1.55266
-0.0532135
1.30034
-0.0455248
1.05217
-0.0254982
0.748562
-0.0054907
0.391055
0.104248
0.00240333
0.113762
0.0139424
0.403817
0.0266506
0.759585
0.0298551
1.06733
0.0258546
1.3204
0.0187527
1.57464
0.0102744
1.86577
0.000664703
2.21556
-0.0100034
2.63698
-0.0217192
3.14647
-0.0321108
3.13982
-0.0401275
2.62192
-0.0459795
2.19671
-0.050363
1.84619
-0.0532076
1.55551
-0.0526015
1.29973
-0.0435106
1.04308
-0.0234499
0.728501
-0.0053131
0.372918
0.0989348
0.00170415
0.112058
0.0105635
0.394958
0.0214068
0.748741
0.0240921
1.06465
0.0201309
1.32436
0.0132197
1.58155
0.00471937
1.87427
-0.00507274
2.22535
-0.0161417
2.64805
-0.027934
3.15826
-0.0379416
3.14983
-0.0444716
2.62845
-0.0491017
2.20134
-0.0527479
1.84984
-0.0544791
1.55724
-0.0530245
1.29828
-0.0425583
1.03261
-0.0222144
0.708157
-0.00524592
0.35595
0.0936889
0.00087233
0.111186
0.00720368
0.388626
0.0164603
0.739485
0.0188368
1.06227
0.0145287
1.32867
0.00720947
1.58887
-0.00143766
1.88292
-0.0111128
2.23502
-0.0216615
2.6586
-0.0329339
3.16953
-0.0422762
3.15917
-0.0486561
2.63483
-0.052762
2.20545
-0.0554161
1.85249
-0.0561809
1.558
-0.0536454
1.29574
-0.0419678
1.02093
-0.021385
0.687574
-0.00520399
0.339769
0.0884849
0.00019292
0.110993
0.00436393
0.384455
0.0112399
0.732609
0.0123497
1.06116
0.00766019
1.33336
0.00018993
1.59634
-0.00901049
1.89212
-0.0194194
2.24543
-0.0306628
2.66984
-0.0418465
3.18071
-0.0503166
3.16764
-0.0549952
2.63951
-0.0577543
2.20821
-0.0597286
1.85446
-0.0596228
1.5579
-0.0554942
1.29161
-0.0422537
1.00769
-0.0210748
0.666395
-0.0052218
0.323916
0.0832631
-0.000803696
0.111797
0.000596341
0.383055
0.00545849
0.727747
0.00586383
1.06075
0.000373422
1.33885
-0.00819664
1.60491
-0.0180021
1.90192
-0.0284031
2.25583
-0.0390346
2.68048
-0.0494474
3.19113
-0.0572054
3.1754
-0.061584
2.64389
-0.0637689
2.21039
-0.0647535
1.85545
-0.0637567
1.5569
-0.0582231
1.28608
-0.0432894
0.992758
-0.0212856
0.644392
-0.00536951
0.307999
0.0778936
-0.00163361
0.11343
-0.00243681
0.383858
-0.000410019
0.72572
-0.00210723
1.06245
-0.00858497
1.34533
-0.0176903
1.61402
-0.0282593
1.91249
-0.0397895
2.26736
-0.0516179
2.6923
-0.0622284
3.20174
-0.0687223
3.1819
-0.0717317
2.6469
-0.0727326
2.21139
-0.0723379
1.85505
-0.0697859
1.55435
-0.0623334
1.27863
-0.0452415
0.975666
-0.0220204
0.621171
-0.00562724
0.291606
0.0722664
-0.00298127
0.116411
-0.00612224
0.386999
-0.00764398
0.727242
-0.0106333
1.06544
-0.0180305
1.35273
-0.0283738
1.62436
-0.0399666
1.92408
-0.0520182
2.27942
-0.0637909
2.70408
-0.0738819
3.21183
-0.0800844
3.1881
-0.082258
2.64907
-0.0816919
2.21083
-0.0805451
1.85391
-0.0770528
1.55086
-0.0676091
1.26918
-0.0480932
0.95615
-0.0232703
0.596348
-0.00600114
0.274337
0.0662652
-0.00426827
0.12068
-0.0103512
0.393082
-0.0152489
0.732139
-0.0211998
1.07139
-0.0299707
1.3615
-0.0415065
1.6359
-0.0543733
1.93695
-0.0681003
2.29314
-0.0814754
2.71745
-0.0923511
3.2227
-0.0971197
3.19287
-0.0974025
2.64935
-0.0960468
2.20947
-0.0925823
1.85044
-0.0864856
1.54476
-0.0743916
1.25709
-0.0519992
0.933757
-0.0250112
0.56936
-0.00647072
0.255797
0.0597945
-0.00573877
0.126419
-0.0154071
0.402751
-0.0242965
0.741029
-0.0331066
1.0802
-0.0436949
1.37209
-0.0568073
1.64901
-0.0711811
1.95132
-0.0859691
2.30793
-0.0996881
2.73117
-0.109671
3.23269
-0.113729
3.19692
-0.113213
2.64884
-0.109657
2.20591
-0.105106
1.84589
-0.0978632
1.53752
-0.0827314
1.24196
-0.0567911
0.907817
-0.0271463
0.539715
-0.00699714
0.235647
0.0527974
-0.00804623
0.134465
-0.0222288
0.416933
-0.0364737
0.755274
-0.0487902
1.09252
-0.0615696
1.38487
-0.0769835
1.66442
-0.093617
1.96796
-0.1105
2.32481
-0.12539
2.74606
-0.135387
3.24268
-0.13726
3.1988
-0.134247
2.64582
-0.12947
2.20114
-0.122241
1.83866
-0.111483
1.52676
-0.0927867
1.22326
-0.0626782
0.877709
-0.0296736
0.50671
-0.00757299
0.213547
0.0452244
-0.010477
0.144942
-0.0294664
0.435922
-0.0498114
0.775619
-0.0670288
1.10974
-0.0830698
1.40091
-0.101129
1.68248
-0.119973
1.9868
-0.137858
2.3427
-0.152466
2.76067
-0.161289
3.25151
-0.161938
3.19945
-0.156926
2.64081
-0.148958
2.19317
-0.139952
1.82966
-0.127274
1.51408
-0.104134
1.20012
-0.0690214
0.842596
-0.0322461
0.469935
-0.00808274
0.189383
0.0371416
-0.0151288
0.160071
-0.0414734
0.462267
-0.0685678
0.802713
-0.0908043
1.13197
-0.110795
1.4209
-0.132883
1.70457
-0.154711
2.00863
-0.174827
2.36281
-0.190275
2.77612
-0.197062
3.25829
-0.193203
3.19559
-0.184651
2.63226
-0.175043
2.18356
-0.163218
1.81783
-0.145809
1.49667
-0.117654
1.17196
-0.0766042
0.801546
-0.0350272
0.428358
-0.00854926
0.162906
0.0285924
-0.0193118
0.179382
-0.0547031
0.497658
-0.091776
0.839786
-0.121801
1.162
-0.147558
1.44665
-0.17379
1.7308
-0.197889
2.03273
-0.217456
2.38238
-0.22983
2.78849
-0.2332
3.26166
-0.227487
3.18987
-0.216225
2.621
-0.201941
2.16928
-0.186902
1.80279
-0.166497
1.47627
-0.131626
1.13709
-0.0834172
0.753337
-0.0372238
0.382165
-0.00868711
0.134369
0.0199053
-0.0325061
0.211888
-0.0816756
0.546828
-0.129312
0.887422
-0.165717
1.1984
-0.196619
1.47756
-0.226684
1.76087
-0.251497
2.05754
-0.270782
2.40167
-0.282342
2.80005
-0.282079
3.2614
-0.268803
3.1766
-0.251658
2.60385
-0.23586
2.15348
-0.217058
1.78399
-0.189306
1.44851
-0.147095
1.09488
-0.0913095
0.697551
-0.0393861
0.330241
-0.00862798
0.103611
0.0112773
-0.046886
0.258774
-0.120317
0.620259
-0.183464
0.950569
-0.228464
1.2434
-0.265414
1.51451
-0.296195
1.79165
-0.318938
2.08029
-0.333879
2.41661
-0.338044
2.80421
-0.328814
3.25217
-0.311465
3.15925
-0.292328
2.58471
-0.270314
2.13147
-0.246565
1.76024
-0.21382
1.41577
-0.161662
1.04273
-0.0955958
0.631486
-0.0392218
0.273867
-0.00845186
0.0728408
0.00282542
-0.0338858
0.29266
-0.0972929
0.683666
-0.155867
1.00914
-0.203122
1.29066
-0.245787
1.55717
-0.284016
1.82988
-0.319644
2.11591
-0.351539
2.4485
-0.376225
2.8289
-0.390861
3.26681
-0.387273
3.15566
-0.370127
2.56757
-0.350425
2.11177
-0.320468
1.73028
-0.269405
1.36471
-0.193768
0.967088
-0.106979
0.544697
-0.0415193
0.208408
-0.0093971
0.0407186
-0.00657168
-0.0127801
0.30544
-0.0477468
0.718632
-0.0893147
1.05071
-0.128594
1.32994
-0.167559
1.59614
-0.202031
1.86435
-0.233959
2.14784
-0.261331
2.47587
-0.280123
2.84769
-0.282579
3.26926
-0.267799
3.14088
-0.248661
2.54843
-0.222759
2.08586
-0.19057
1.69809
-0.14958
1.32372
-0.0963336
0.913842
-0.0442889
0.492652
-0.0156072
0.179726
-0.00375656
0.028868
-0.0103282
0.00010966
0.305331
-0.0248133
0.743555
-0.054413
1.08031
-0.0844319
1.35996
-0.115799
1.6275
-0.146252
1.8948
-0.174434
2.17602
-0.197658
2.4991
-0.211783
2.86182
-0.211699
3.26918
-0.19867
3.12785
-0.17566
2.52542
-0.146775
2.05698
-0.114932
1.66625
-0.0758039
1.28459
-0.0354463
0.873485
-0.00877446
0.46598
-0.00117006
0.172121
-0.00055354
0.0282515
-0.0108818
0.000630254
0.3047
-0.0128309
0.757017
-0.0342556
1.10174
-0.0588505
1.38455
-0.0847337
1.65339
-0.110401
1.92047
-0.134065
2.19969
-0.153034
2.51807
-0.163522
2.87231
-0.161079
3.26674
-0.143957
3.11073
-0.118264
2.49973
-0.089883
2.0286
-0.0559718
1.63234
-0.0251206
1.25374
-0.00167706
0.850041
0.00883072
0.455473
0.00626228
0.17469
0.00156807
0.0329457
-0.00931371
0.00410954
0.300591
-0.00516315
0.766289
-0.0231507
1.11972
-0.0438017
1.4052
-0.0654242
1.67501
-0.0869569
1.942
-0.107147
2.21988
-0.123353
2.53427
-0.131988
2.88094
-0.128352
3.2631
-0.109456
3.09183
-0.0832947
2.47357
-0.0535685
1.99887
-0.0269194
1.60569
0.000949175
1.22587
0.0198641
0.831126
0.0212712
0.454066
0.012005
0.183956
0.00326006
0.0416906
-0.00605365
0.0051461
0.295445
-0.000958411
0.772394
-0.016821
1.13559
-0.0350468
1.42343
-0.0541332
1.6941
-0.0730518
1.96092
-0.0908248
2.23765
-0.105295
2.54874
-0.112592
2.88824
-0.107752
3.25826
-0.089247
3.07333
-0.064306
2.44863
-0.0373245
1.97189
-0.00781641
1.57618
0.0134794
1.20457
0.0249959
0.81961
0.024183
0.454878
0.0136101
0.194529
0.00386645
0.0514343
-0.0021872
0.00418163
0.291263
-6.07556e-05
0.776636
-0.0133847
1.14891
-0.0299829
1.44003
-0.0472167
1.71133
-0.0644607
1.97816
-0.0807309
2.25392
-0.0936932
2.56171
-0.0997467
2.89429
-0.0950419
3.25356
-0.0777022
3.05599
-0.0540483
2.42497
-0.0278021
1.94564
-0.00528014
1.55366
0.0150901
1.1842
0.0264454
0.808254
0.0233751
0.457949
0.013256
0.204648
0.0038419
0.0608484
0.00165471
0.00257446
0.288689
-0.00106858
0.780279
-0.0129486
1.16079
-0.0278181
1.4549
-0.0439741
1.72749
-0.0599847
1.99417
-0.0750687
2.269
-0.0875199
2.57416
-0.0945327
2.9013
-0.0910634
3.25009
-0.0749043
3.03983
-0.0533826
2.40345
-0.0301141
1.92238
-0.00492664
1.52847
0.0126923
1.16658
0.0210131
0.799934
0.0198105
0.459151
0.0112294
0.213229
0.00335806
0.0687198
0.00501277
0.00049875
0.28819
-0.002945
0.783723
-0.0135813
1.17143
-0.0270348
1.46835
-0.0420605
1.74251
-0.0572875
2.0094
-0.0719914
2.28371
-0.0844752
2.58664
-0.0917304
2.90856
-0.0886625
3.24702
-0.0746784
3.02585
-0.0541052
2.38288
-0.0312327
1.8995
-0.0130738
1.51031
0.00471161
1.1488
0.0155495
0.789096
0.0143372
0.460364
0.00838111
0.219185
0.00256526
0.0745356
0.00757803
-0.000531573
0.288722
-0.00542074
0.788612
-0.01505
1.18106
-0.0274496
1.48075
-0.041804
1.75687
-0.0564901
2.02409
-0.0709327
2.29815
-0.0837717
2.59948
-0.0922103
2.917
-0.0914819
3.24629
-0.0784326
3.0128
-0.059013
2.36346
-0.040507
1.881
-0.0190079
1.48881
-0.00343447
1.13323
0.00532165
0.78034
0.00783045
0.457855
0.00476412
0.222252
0.00171027
0.0775895
0.0092883
-0.00189706
0.290619
-0.0070147
0.79373
-0.0164328
1.19047
-0.0282039
1.49252
-0.0417537
1.77042
-0.0560389
2.03837
-0.0706056
2.31272
-0.0839909
2.61286
-0.0935022
2.92651
-0.0948398
3.24763
-0.0841086
3.00207
-0.0661637
2.34551
-0.0456029
1.86044
-0.0295561
1.47277
-0.0136486
1.11732
-0.00165973
0.768351
0.00131106
0.454884
0.00149866
0.222064
0.000739734
0.0783484
0.010028
-0.00337861
0.293997
-0.00895168
0.799303
-0.0179103
1.19943
-0.0292014
1.50381
-0.0423882
1.7836
-0.0564031
2.05239
-0.0709577
2.32727
-0.0849421
2.62685
-0.0959014
2.93747
-0.0994347
3.25116
-0.0894682
2.9921
-0.0734845
2.32953
-0.0574705
1.84442
-0.0373211
1.45262
-0.0214432
1.10144
-0.0104927
0.7574
-0.00361315
0.448004
-0.0013358
0.219787
-0.000102612
0.0771152
0.00992542
-0.00405578
0.298053
-0.00995451
0.805201
-0.0190152
1.20849
-0.0300281
1.51482
-0.042692
1.79627
-0.0563846
2.06608
-0.0710914
2.34198
-0.0857756
2.64153
-0.0982051
2.9499
-0.104413
3.25737
-0.0989458
2.98663
-0.0845165
2.3151
-0.0633027
1.82321
-0.0462982
1.43561
-0.0288315
1.08397
-0.0146808
0.74325
-0.00786645
0.44119
-0.00286623
0.214786
-0.000500242
0.0747492
0.00942518
-0.00436043
0.302413
-0.0110745
0.811916
-0.0199768
1.2174
-0.0306258
1.52547
-0.0430566
1.8087
-0.0566139
2.07964
-0.0714326
2.3568
-0.0867705
2.65687
-0.100646
2.96377
-0.10915
3.26587
-0.105751
2.98323
-0.0925649
2.30191
-0.075968
1.80661
-0.0526291
1.41228
-0.0334168
1.06476
-0.0195342
0.729367
-0.00940739
0.431063
-0.0037434
0.209122
-0.000756652
0.0717625
0.00866852
-0.00438092
0.306794
-0.0113698
0.818904
-0.0204143
1.22644
-0.0309109
1.53597
-0.0429749
1.82076
-0.0562831
2.09295
-0.071215
2.37173
-0.0870856
2.67274
-0.102348
2.97903
-0.113809
3.27734
-0.114869
2.98429
-0.103548
2.29059
-0.0809611
1.78402
-0.0592798
1.39059
-0.0368384
1.04232
-0.0190967
0.711625
-0.00965046
0.421617
-0.00332942
0.202801
-0.000745567
0.0691786
0.00792296
-0.00452799
0.311322
-0.0119144
0.826291
-0.0206951
1.23522
-0.0308638
1.54614
-0.0427285
1.83263
-0.0559369
2.10615
-0.0709445
2.38674
-0.0873608
2.68916
-0.104059
2.99573
-0.117676
3.29095
-0.120737
2.98735
-0.111086
2.28094
-0.0934973
1.76644
-0.0645006
1.3616
-0.0375696
1.01539
-0.0183127
0.692368
-0.00515207
0.408457
-9.64014e-05
0.197746
0.000797081
0.0682851
0.00872004
-0.00452111
0.315843
-0.0118032
0.833573
-0.0205432
1.24396
-0.0305681
1.55616
-0.0421065
1.84416
-0.0550451
2.11909
-0.0700483
2.40174
-0.0868615
2.70597
-0.104625
3.0135
-0.120566
3.30689
-0.1284
2.99519
-0.121368
2.27391
-0.0984729
1.74354
-0.070619
1.33374
-0.0373945
0.982164
-0.0106516
0.665625
0.00319285
0.394612
0.00489808
0.196041
-0.00105227
0.0742355
0.00766776
-0.00459007
0.320434
-0.0119718
0.840955
-0.0203441
1.25233
-0.0299819
1.5658
-0.0412527
1.85543
-0.0540437
2.13188
-0.0690501
2.41675
-0.0862596
2.72318
-0.105097
3.03233
-0.123168
3.32497
-0.133279
3.0053
-0.128572
2.2692
-0.111942
1.72691
-0.0770943
1.2989
-0.0364946
0.941564
0.000767239
0.628364
0.0300938
0.365286
0.0401665
0.185968
0.026487
0.087915
0.0341548
-0.00444888
0.324882
-0.0115638
0.84807
-0.0198095
1.26058
-0.0292436
1.57523
-0.0401509
1.86634
-0.0526222
2.14435
-0.0674969
2.43162
-0.0848683
2.74055
-0.104374
3.05184
-0.124271
3.34486
-0.137699
3.01873
-0.138018
2.26952
-0.118085
1.70698
-0.0854777
1.26629
-0.0371067
0.893193
0.0112984
0.579958
0.0520769
0.324507
0.0493458
0.188699
0.0217278
0.115533
0.0558825
-0.0043423
0.329225
-0.011444
0.855171
-0.0192856
1.26842
-0.0282608
1.58421
-0.0388615
1.87694
-0.0511275
2.15662
-0.0659064
2.4464
-0.0834565
2.7581
-0.103695
3.07208
-0.125444
3.36661
-0.140876
3.03416
-0.144339
2.27299
-0.13327
1.69591
-0.0974748
1.23049
-0.0449301
0.840649
0.0271144
0.507914
0.125487
0.226134
0.19693
0.117257
0.183039
0.129423
0.238922
-0.00417729
0.333402
-0.0110418
0.862036
-0.0189409
1.27632
-0.028034
1.5933
-0.0388135
1.88772
-0.0514796
2.16929
-0.0671229
2.46204
-0.0861937
2.77717
-0.109006
3.09489
-0.135033
3.39264
-0.156689
3.05581
-0.166693
2.28299
-0.154925
1.68414
-0.123497
1.19906
-0.0624355
0.779587
-0.00464501
0.450123
-0.0618237
0.283313
-0.356294
0.411727
-0.942893
0.716023
0.900809
-1.60478
-0.00403942
0.337441
-0.0108851
0.868882
-0.0184778
1.28391
-0.0273025
1.60213
-0.0379935
1.89841
-0.0508505
2.18214
-0.0669951
2.47819
-0.0871058
2.79728
-0.111913
3.1197
-0.141692
3.42242
-0.168246
3.08237
-0.182815
2.29756
-0.188644
1.68997
-0.16621
1.17663
-0.136218
0.749594
-0.231129
0.545035
-0.693455
0.745639
-1.44594
1.16421
-2.05269
1.32277
1.21648
-2.36836
-0.00379791
0.341239
-0.0102499
0.875334
-0.0177214
1.29138
-0.0264856
1.61089
-0.0370766
1.909
-0.0499711
2.19504
-0.0664558
2.49467
-0.0873933
2.81822
-0.114002
3.14631
-0.147457
3.45587
-0.180571
3.11548
-0.204974
2.32196
-0.211707
1.6967
-0.19797
1.16289
-0.283622
0.835247
-0.753268
1.01468
-1.54896
1.54133
-2.11209
1.72734
-2.35077
1.56146
1.33052
-2.46481
-0.00366666
0.344906
-0.0099247
0.881592
-0.0170132
1.29847
-0.0254425
1.61932
-0.0358612
1.91942
-0.0488675
2.20804
-0.0657452
2.51155
-0.0876153
2.84009
-0.116125
3.17482
-0.153348
3.4931
-0.19239
3.15452
-0.222628
2.3522
-0.248059
1.72214
-0.324855
1.23969
-0.682156
1.19255
-1.43981
1.77233
-2.02838
2.1299
-2.26771
1.96668
-2.38068
1.67443
1.39451
-2.44467
-0.00334619
0.348252
-0.00911026
0.887356
-0.0159836
1.30535
-0.024284
1.62762
-0.0346112
1.92975
-0.0475776
2.22101
-0.0646558
2.52863
-0.0871806
2.86262
-0.117339
3.20497
-0.158361
3.53412
-0.205129
3.20129
-0.248142
2.39521
-0.288026
1.76202
-0.468691
1.42035
-1.09461
1.81847
-1.78963
2.46735
-2.10901
2.44928
-2.25686
2.11453
-2.3388
1.75637
1.46042
-2.40471
-0.00333494
0.351587
-0.00915313
0.893174
-0.0158958
1.31209
-0.0241108
1.63584
-0.0346429
1.94028
-0.0479861
2.23435
-0.0656752
2.54632
-0.089286
2.88623
-0.121381
3.23707
-0.165997
3.57873
-0.21872
3.25401
-0.264768
2.44126
-0.352762
1.85001
-0.744931
1.81252
-1.4911
2.56464
-1.96321
2.93947
-2.16296
2.64903
-2.26905
2.22061
-2.34614
1.83346
1.5238
-2.40952
-0.00339066
0.354978
-0.00929308
0.899076
-0.0165337
1.31933
-0.0253528
1.64466
-0.0364555
1.95138
-0.0503981
2.2483
-0.0688946
2.56481
-0.093657
2.91099
-0.127719
3.27113
-0.176529
3.62754
-0.23454
3.31202
-0.296182
2.5029
-0.483406
2.03724
-1.04607
2.37519
-1.67881
3.19737
-1.95338
3.21403
-2.10007
2.79572
-2.21381
2.33435
-2.30733
1.92698
1.58538
-2.36891
-0.0035211
0.358499
-0.00997801
0.905533
-0.0174865
1.32684
-0.0265956
1.65376
-0.0381612
1.96295
-0.0528576
2.26299
-0.0723626
2.58432
-0.0985921
2.93722
-0.134813
3.30735
-0.187176
3.67991
-0.250065
3.37491
-0.335331
2.58817
-0.616908
2.31881
-1.26402
3.0223
-1.7524
3.68575
-1.95934
3.42097
-2.09896
2.93533
-2.2226
2.45799
-2.33286
2.03724
1.64393
-2.3914
-0.0034382
0.361937
-0.00989862
0.911994
-0.018083
1.33502
-0.0279975
1.66368
-0.0402463
1.9752
-0.0555793
2.27833
-0.0759202
2.60466
-0.103301
2.9646
-0.141399
3.34545
-0.197242
3.73575
-0.265395
3.44307
-0.389338
2.71211
-0.775172
2.70465
-1.41035
3.65748
-1.76236
4.03777
-1.93505
3.59366
-2.03673
3.03702
-2.12511
2.54637
-2.1921
2.10422
1.63663
-2.1848
-0.00346244
0.365399
-0.010604
0.919135
-0.0190332
1.34345
-0.0291969
1.67384
-0.041945
1.98795
-0.0581156
2.2945
-0.0795423
2.62609
-0.108455
2.99351
-0.148638
3.38564
-0.206054
3.79316
-0.284309
3.52132
-0.453938
2.88174
-0.906514
3.15722
-1.4625
4.21346
-1.72382
4.29909
-1.87516
3.745
-1.96829
3.13015
-1.96941
2.5475
-1.89995
2.03476
1.60043
-1.86375
-0.00319794
0.368597
-0.0100922
0.926029
-0.0192746
1.35263
-0.0303355
1.6849
-0.0437358
2.00135
-0.0602829
2.31104
-0.0820241
2.64783
-0.11115
3.02264
-0.151571
3.42606
-0.208826
3.85042
-0.294856
3.60735
-0.498892
3.08578
-0.988639
3.64697
-1.42936
4.65418
-1.59408
4.46381
-1.66098
3.8119
-1.66528
3.13445
-1.51749
2.39971
-1.01742
1.53469
0.58301
-0.00282092
0.371418
-0.0106645
0.933873
-0.0200203
1.36199
-0.0313338
1.69622
-0.0455358
2.01555
-0.0635455
2.32905
-0.0873579
2.67164
-0.119466
3.05475
-0.164082
3.47067
-0.22765
3.91399
-0.33011
3.70981
-0.584301
3.33997
-1.12414
4.18681
-1.4822
5.01224
-1.58123
4.56284
-1.5789
3.80957
-1.47494
3.03049
-1.23603
2.1608
-0.631825
0.930481
-0.0488157
-0.00244622
0.373865
-0.00931757
0.940744
-0.0195515
1.37222
-0.0322339
1.7089
-0.0477127
2.03103
-0.0669484
2.34829
-0.0924543
2.69715
-0.126961
3.08925
-0.175686
3.5194
-0.245736
3.98404
-0.368711
3.83279
-0.682967
3.65423
-1.24264
4.74649
-1.50273
5.27232
-1.56093
4.62104
-1.53864
3.78729
-1.33678
2.82863
-0.782884
1.60691
-0.108771
0.256367
-0.157586
-0.00173771
0.375602
-0.00953812
0.948545
-0.0196134
1.3823
-0.0322413
1.72153
-0.0482887
2.04708
-0.0689633
2.36896
-0.0966459
2.72483
-0.134393
3.127
-0.187089
3.57209
-0.264857
4.0618
-0.413102
3.98103
-0.785539
4.02666
-1.32085
5.2818
-1.49692
5.4484
-1.52806
4.65218
-1.43986
3.69909
-1.10201
2.49078
-0.313097
0.817989
0.024839
-0.0815684
-0.132747
-0.000577046
0.376179
-0.00662919
0.954597
-0.0175465
1.39322
-0.0317892
1.73577
-0.0491979
2.06448
-0.0710291
2.3908
-0.100244
2.75404
-0.139995
3.16675
-0.195434
3.62753
-0.281761
4.14813
-0.45681
4.15608
-0.89513
4.46498
-1.36621
5.75287
-1.48223
5.56442
-1.48493
4.65488
-1.25964
3.47379
-0.686305
1.91744
-0.062561
0.194245
0.030344
-0.174473
-0.102403
0.000133671
0.376046
-0.00572719
0.960458
-0.0160214
1.40351
-0.0297857
1.74953
-0.0472022
2.0819
-0.0703015
2.41389
-0.101542
2.78529
-0.144213
3.20942
-0.203034
3.68635
-0.298685
4.24378
-0.499915
4.35731
-0.988218
4.95329
-1.36172
6.12637
-1.42591
5.62862
-1.37913
4.6081
-1.09035
3.18501
-0.322439
1.14954
0.00514834
-0.133343
0.0152363
-0.184561
-0.087167
0.00329003
0.372756
0.000346761
0.963401
-0.0109934
1.41485
-0.0265998
1.76514
-0.0452315
2.10053
-0.0693656
2.43803
-0.101621
2.81754
-0.145405
3.25321
-0.206586
3.74753
-0.309939
4.34714
-0.53694
4.58431
-1.0498
5.46614
-1.3256
6.40217
-1.36624
5.66926
-1.22589
4.46775
-0.771961
2.73108
-0.0687032
0.446277
0.0448511
-0.246897
0.0244996
-0.16421
-0.0626674
0.00454977
0.368206
0.00261149
0.965339
-0.00710263
1.42456
-0.0207823
1.77882
-0.0385066
2.11826
-0.0634428
2.46296
-0.0971215
2.85122
-0.143284
3.29937
-0.207388
3.81164
-0.319339
4.45909
-0.577144
4.84212
-1.07274
5.96174
-1.26221
6.59164
-1.27106
5.67811
-1.05162
4.24831
-0.460225
2.13969
-0.0180677
0.00411943
-0.00623077
-0.258734
0.00516347
-0.175604
-0.057504
0.00867132
0.359535
0.00993194
0.964079
0.00232983
1.43217
-0.0122502
1.7934
-0.0313697
2.13738
-0.0567873
2.48838
-0.090443
2.88488
-0.135991
3.34492
-0.201226
3.87687
-0.318498
4.57636
-0.596679
5.1203
-1.048
6.41306
-1.17211
6.71575
-1.15797
5.66397
-0.897093
3.98743
-0.263486
1.50609
-0.0709548
-0.188412
-0.0389338
-0.290755
-0.0141076
-0.20043
-0.0716115
0.0115584
0.347976
0.0162762
0.959361
0.0113685
1.43707
0.00111712
1.80365
-0.0172127
2.15571
-0.0417793
2.51295
-0.0753996
2.9185
-0.122053
3.39157
-0.188405
3.94322
-0.310513
4.69847
-0.597758
5.40754
-0.985636
6.80094
-1.0505
6.78061
-0.978614
5.59208
-0.678437
3.68726
-0.0736041
0.901253
0.0137315
-0.275747
-0.0010598
-0.275964
-0.00207647
-0.199414
-0.073688
0.0185058
0.32947
0.0300576
0.947809
0.0283491
1.43878
0.0166839
1.81532
-0.00173343
2.17412
-0.024609
2.53582
-0.0566219
2.95051
-0.100534
3.43548
-0.16451
4.0072
-0.284821
4.81878
-0.562617
5.68534
-0.870086
7.10841
-0.90463
6.81516
-0.806812
5.49426
-0.448997
3.32944
0.06509
0.387166
0.0749804
-0.285638
0.0554945
-0.256478
0.0213337
-0.165253
-0.0523543
0.0244222
0.305048
0.0426756
0.929556
0.0459123
1.43555
0.0394129
1.82182
0.0270848
2.18645
0.00562121
2.55729
-0.0243138
2.98044
-0.0665725
3.47774
-0.128132
4.06876
-0.243576
4.93422
-0.492027
5.93379
-0.71342
7.3298
-0.74588
6.84762
-0.636095
5.38448
-0.307482
3.00083
-0.00444235
0.0841262
0.0159939
-0.306074
0.0312221
-0.271706
0.0164453
-0.150476
-0.035909
0.035158
0.26989
0.0652007
0.899513
0.0757123
1.42503
0.0715659
1.82596
0.0600505
2.19797
0.0407677
2.57657
0.0141126
3.0071
-0.0228424
3.5147
-0.0768224
4.12274
-0.174564
5.03196
-0.375249
6.13447
-0.530109
7.48466
-0.551841
6.86935
-0.460734
5.29337
-0.182158
2.72225
-0.0644732
-0.0335585
-0.0480212
-0.322526
-0.0190045
-0.300723
-0.00255942
-0.166921
-0.0384684
0.0446093
0.225281
0.087238
0.856884
0.107572
1.4047
0.112377
1.82116
0.108473
2.20187
0.09469
2.59035
0.0739652
3.02782
0.0422471
3.54641
-0.00799686
4.17298
-0.0817741
5.10574
-0.217895
6.2706
-0.306252
7.57302
-0.323655
6.88675
-0.265642
5.23536
-0.053333
2.50994
-0.0795057
-0.00738579
-0.075973
-0.326059
-0.0352037
-0.341492
0.0104384
-0.212563
-0.02803
0.0577551
0.167526
0.120243
0.794396
0.156315
1.36863
0.167832
1.80964
0.167194
2.20251
0.157103
2.60044
0.142951
3.04198
0.122419
3.56695
0.0901789
4.20523
0.0464171
5.1495
-0.00150784
6.31852
-0.0387888
7.6103
-0.0417262
6.88969
-0.0411082
5.23474
-0.0272182
2.49605
-0.214975
0.180371
-0.201833
-0.339201
-0.105032
-0.438294
0.0100742
-0.327669
-0.0179558
0.060098
0.107428
0.150294
0.7042
0.206846
1.31208
0.233935
1.78255
0.245755
2.19069
0.245305
2.6009
0.239948
3.04733
0.229016
3.57788
0.213793
4.22045
0.195863
5.16743
0.257439
6.25694
0.311483
7.55625
0.282431
6.91874
0.0991415
5.41803
-0.229356
2.82455
-0.556092
0.507107
-0.556068
-0.339224
-0.406848
-0.587514
-0.181621
-0.552896
-0.199577
0.0505175
0.0569101
0.183078
0.57164
0.277564
1.21759
0.321982
1.73813
0.341113
2.17156
0.348538
2.59347
0.349761
3.04611
0.354658
3.57298
0.363588
4.21152
0.388546
5.14247
0.544498
6.10099
0.71307
7.38768
0.724448
6.90736
0.609051
5.53343
0.128277
3.30532
-0.431369
1.06675
-0.699833
-0.070761
-0.596137
-0.69121
-0.325061
-0.823972
-0.524638
0.0348429
0.0220672
0.217781
0.388701
0.343461
1.09191
0.420174
1.66142
0.460991
2.13074
0.484503
2.56996
0.494172
3.03644
0.511005
3.55615
0.542817
4.17971
0.61123
5.07406
0.895007
5.81722
1.31842
6.96427
1.62545
6.60033
1.82574
5.33314
1.47282
3.65824
0.749676
1.7899
0.161921
0.516994
-0.158633
-0.370657
-0.201865
-0.780739
-0.726503
0.0310664
-0.00899917
0.23638
0.183388
0.442395
0.885895
0.554359
1.54946
0.605095
2.08
0.637993
2.53706
0.659882
3.01455
0.6899
3.52613
0.749002
4.1206
0.876067
4.947
1.2614
5.43189
1.95718
6.26848
2.33031
6.22721
2.54626
5.11719
2.39907
3.80542
1.81561
2.37336
1.24326
1.08935
0.620887
0.251715
0.204444
-0.364296
-0.522059
0.0268195
-0.0358186
0.166496
0.0437115
0.489463
0.562928
0.68034
1.35858
0.778112
1.98223
0.82867
2.4865
0.864546
2.97867
0.892811
3.49787
0.968531
4.04488
1.11326
4.80227
1.49532
5.04982
2.28155
5.48226
2.65731
5.85145
2.84934
4.92516
2.74383
3.91093
2.25873
2.85846
1.60761
1.74047
1.00456
0.854764
0.442223
0.198041
-0.0798358
0.00632929
-0.0421479
0.086018
-0.0359772
0.413376
0.23557
0.696256
1.0757
0.825326
1.85316
0.864166
2.44766
0.87648
2.96636
0.863885
3.51046
0.861812
4.04696
0.904877
4.7592
1.04723
4.90747
1.4715
5.05798
1.6464
5.67655
1.67352
4.89805
1.59421
3.99023
1.37445
3.07823
1.01111
2.1038
0.641474
1.2244
0.259606
0.579909
0.17977
0.00232852
-0.0444764
0.0429466
-0.0765953
0.226226
0.0522902
0.524494
0.777434
0.691606
1.68605
0.744441
2.39483
0.757594
2.95321
0.752924
3.51513
0.737121
4.06276
0.758211
4.73811
0.823473
4.84221
1.09452
4.78694
1.29699
5.47407
1.3005
4.89454
1.23847
4.05226
1.0843
3.23239
0.807181
2.38093
0.504053
1.52753
0.211748
0.872214
0.391518
0.00248987
-0.0469663
0.0234518
-0.0975573
0.100431
-0.0246894
0.36203
0.515835
0.539336
1.50874
0.621324
2.31284
0.639482
2.93505
0.637948
3.51666
0.611966
4.08874
0.604951
4.74513
0.632822
4.81434
0.793654
4.62611
0.975165
5.29256
0.969189
4.90052
0.908035
4.11342
0.791104
3.34932
0.599062
2.57297
0.367769
1.75883
0.146128
1.09385
0.537646
-0.0108981
-0.0360682
-0.0084235
-0.100032
0.0299782
-0.0630911
0.241604
0.30421
0.407391
1.34296
0.484968
2.23526
0.507415
2.9126
0.511986
3.51209
0.493634
4.10709
0.4767
4.76206
0.478935
4.8121
0.575256
4.52979
0.706785
5.16103
0.702276
4.90502
0.639016
4.17668
0.543946
3.44439
0.408924
2.70799
0.241469
1.92628
0.0858461
1.24948
0.623493
-0.00139848
-0.0346697
0.0228929
-0.124323
0.0608995
-0.101098
0.185999
0.179111
0.319433