/*--------------------------------*- C++ -*----------------------------------*\
| =========                 |                                                 |
| \\      /  F ield         | OpenFOAM: The Open Source CFD Toolbox           |
|  \\    /   O peration     | Version:  v2012                                 |
|   \\  /    A nd           | Website:  www.openfoam.com                      |
|    \\/     M anipulation  |                                                 |
\*---------------------------------------------------------------------------*/
FoamFile
{
    version     2.0;
    format      ascii;
    class       volVectorField;
    location    "57";
    object      U;
}
// * * * * * * * * * * * * * * * * * * * * * * * * * * * * * * * * * * * * * //

dimensions      [0 1 -1 0 0 0 0];


internalField   nonuniform List<vector> 
2200
(
(0.878853 -0.0304119 0)
(1.0058 -0.0512823 0)
(1.0033 -0.0353878 0)
(1.00032 -0.0244439 0)
(0.999901 -0.0166724 0)
(0.999998 -0.0107398 0)
(1.00002 -0.00684678 0)
(1.00003 -0.00419655 0)
(1.00001 -0.00218282 0)
(1.00018 -0.000649107 0)
(0.999994 0.00109063 0)
(0.999924 0.00255242 0)
(1.00014 0.00446925 0)
(1.00013 0.00703683 0)
(1.00008 0.0108169 0)
(1.00006 0.0166457 0)
(1.00039 0.024374 0)
(1.00349 0.0348783 0)
(1.00599 0.0513758 0)
(0.879052 0.0303012 0)
(0.711989 -0.0327663 0)
(0.996637 -0.0630163 0)
(1.03328 -0.0561881 0)
(1.0248 -0.0464315 0)
(1.01582 -0.0361372 0)
(1.00968 -0.0264043 0)
(1.00593 -0.0181627 0)
(1.00377 -0.0114513 0)
(1.00258 -0.00612066 0)
(1.00207 -0.00164766 0)
(1.00211 0.00254109 0)
(1.0025 0.00709653 0)
(1.00344 0.0123651 0)
(1.00563 0.0189769 0)
(1.00941 0.027214 0)
(1.01547 0.0369657 0)
(1.02457 0.0474439 0)
(1.03314 0.0579529 0)
(0.9967 0.0631443 0)
(0.711771 0.0330302 0)
(0.535577 -0.0238883 0)
(0.969913 -0.0569253 0)
(1.05646 -0.0546857 0)
(1.05233 -0.048738 0)
(1.0363 -0.0403872 0)
(1.02444 -0.032221 0)
(1.0159 -0.0239445 0)
(1.01038 -0.0160847 0)
(1.00715 -0.008754 0)
(1.00565 -0.00207209 0)
(1.00562 0.00429429 0)
(1.00707 0.0106899 0)
(1.01035 0.0177615 0)
(1.0157 0.0254152 0)
(1.02419 0.0334222 0)
(1.03623 0.0413842 0)
(1.05228 0.0493831 0)
(1.05633 0.0532972 0)
(0.969221 0.0576318 0)
(0.534417 0.0239337 0)
(0.392281 -0.0136603 0)
(0.911744 -0.0464121 0)
(1.05748 -0.0469792 0)
(1.06945 -0.044347 0)
(1.05483 -0.0382302 0)
(1.03934 -0.031536 0)
(1.02759 -0.0247528 0)
(1.01912 -0.0174938 0)
(1.01376 -0.0100489 0)
(1.01109 -0.00253332 0)
(1.01077 0.00498489 0)
(1.01308 0.0125334 0)
(1.01817 0.0198016 0)
(1.02662 0.0266566 0)
(1.03839 0.0330678 0)
(1.05388 0.0395212 0)
(1.0681 0.0456171 0)
(1.0555 0.0483088 0)
(0.909898 0.0469874 0)
(0.389954 0.0137772 0)
(0.307673 -0.00451156 0)
(0.846764 -0.0323763 0)
(1.04948 -0.039912 0)
(1.07954 -0.0381501 0)
(1.06827 -0.0335046 0)
(1.0517 -0.0279273 0)
(1.0383 -0.0225349 0)
(1.02806 -0.0165173 0)
(1.02095 -0.00956811 0)
(1.01718 -0.00186248 0)
(1.01718 0.00601802 0)
(1.02076 0.0132409 0)
(1.02751 0.0197109 0)
(1.03733 0.0254047 0)
(1.05037 0.0303602 0)
(1.06679 0.0356577 0)
(1.07784 0.0399719 0)
(1.04743 0.0416956 0)
(0.843092 0.0329417 0)
(0.303832 0.00472946 0)
(0.26423 0.00010417 0)
(0.788921 -0.0200662 0)
(1.0333 -0.0314661 0)
(1.08347 -0.0320429 0)
(1.07724 -0.0287808 0)
(1.06081 -0.0238576 0)
(1.04722 -0.0193917 0)
(1.03638 -0.0142833 0)
(1.0286 -0.00826729 0)
(1.02411 -0.00133268 0)
(1.02342 0.00592127 0)
(1.02706 0.0127547 0)
(1.03442 0.0183923 0)
(1.04503 0.0229775 0)
(1.05852 0.0270101 0)
(1.0748 0.0314614 0)
(1.08029 0.0342364 0)
(1.02911 0.0332905 0)
(0.782675 0.0207293 0)
(0.258844 0.000116128 0)
(0.240308 0.00106356 0)
(0.73834 -0.0123036 0)
(1.0137 -0.0250208 0)
(1.0841 -0.026816 0)
(1.08306 -0.0245291 0)
(1.06782 -0.0203912 0)
(1.05424 -0.0163459 0)
(1.04336 -0.0118488 0)
(1.03517 -0.00646239 0)
(1.03024 -4.9021e-05 0)
(1.03008 0.00675125 0)
(1.03429 0.0125401 0)
(1.04166 0.017252 0)
(1.05193 0.0211913 0)
(1.065 0.0245348 0)
(1.07964 0.0279859 0)
(1.08012 0.0295638 0)
(1.00784 0.0271794 0)
(0.72918 0.0131203 0)
(0.233275 -0.000843188 0)
(0.225929 0.00095763 0)
(0.695358 -0.00805067 0)
(0.992965 -0.0207679 0)
(1.08215 -0.023153 0)
(1.08683 -0.0212985 0)
(1.07339 -0.0177446 0)
(1.05992 -0.0139672 0)
(1.04931 -0.00964106 0)
(1.04137 -0.0046599 0)
(1.03649 0.000957751 0)
(1.03537 0.00672499 0)
(1.03879 0.0121286 0)
(1.04587 0.0164699 0)
(1.05591 0.0199443 0)
(1.06922 0.0230207 0)
(1.08198 0.0257927 0)
(1.07561 0.0267338 0)
(0.983334 0.0233954 0)
(0.682047 0.00910342 0)
(0.216842 -0.000715233 0)
(0.216355 0.000622574 0)
(0.659966 -0.0056834 0)
(0.97249 -0.0176418 0)
(1.0795 -0.0202545 0)
(1.09022 -0.0187038 0)
(1.07819 -0.0155918 0)
(1.06485 -0.0119358 0)
(1.05435 -0.00777248 0)
(1.04638 -0.00298674 0)
(1.04122 0.00243712 0)
(1.04065 0.00801355 0)
(1.04426 0.0126193 0)
(1.05086 0.0163813 0)
(1.06026 0.0195948 0)
(1.07276 0.0222267 0)
(1.08359 0.0243662 0)
(1.07122 0.0248793 0)
(0.959708 0.0209276 0)
(0.642246 0.00704223 0)
(0.204843 -0.000340564 0)
(0.209112 0.000291888 0)
(0.631276 -0.0042434 0)
(0.953473 -0.0150757 0)
(1.07623 -0.0180173 0)
(1.09324 -0.0166747 0)
(1.08283 -0.0137287 0)
(1.06939 -0.0101569 0)
(1.05896 -0.00606019 0)
(1.05123 -0.0013589 0)
(1.04636 0.00364777 0)
(1.04475 0.00851529 0)
(1.04719 0.0130932 0)
(1.05331 0.0167953 0)
(1.06266 0.0195769 0)
(1.07556 0.0219861 0)
(1.08451 0.0237572 0)
(1.06408 0.0237063 0)
(0.93478 0.0190267 0)
(0.607299 0.00588471 0)
(0.19442 3.10478e-05 0)
(0.203251 8.05511e-05 0)
(0.607952 -0.00316961 0)
(0.935573 -0.0126118 0)
(1.07328 -0.0156547 0)
(1.09668 -0.0145078 0)
(1.08757 -0.0117661 0)
(1.07409 -0.00823274 0)
(1.06338 -0.00426189 0)
(1.05527 0.00033721 0)
(1.04978 0.00544352 0)
(1.04848 0.0104006 0)
(1.05139 0.0144647 0)
(1.05722 0.0174938 0)
(1.0661 0.020157 0)
(1.07815 0.0222293 0)
(1.085 0.0234482 0)
(1.05754 0.0228806 0)
(0.91135 0.0174821 0)
(0.577336 0.00523211 0)
(0.184926 0.000316012 0)
(0.198622 8.62933e-07 0)
(0.589606 -0.00231875 0)
(0.919969 -0.0103117 0)
(1.07009 -0.0135797 0)
(1.09991 -0.0125517 0)
(1.09241 -0.00980695 0)
(1.07875 -0.00623856 0)
(1.06783 -0.00231648 0)
(1.05962 0.00216542 0)
(1.05422 0.00695001 0)
(1.05189 0.0116672 0)
(1.05326 0.0155056 0)
(1.05871 0.0186959 0)
(1.06786 0.0207799 0)
(1.08041 0.0225796 0)
(1.08476 0.0234754 0)
(1.04848 0.0222094 0)
(0.886765 0.0162089 0)
(0.549829 0.00482087 0)
(0.175555 0.000479243 0)
(0.195027 2.63636e-05 0)
(0.574878 -0.00156943 0)
(0.905378 -0.00814335 0)
(1.06734 -0.0110815 0)
(1.10348 -0.0100359 0)
(1.09732 -0.00739798 0)
(1.08357 -0.00387521 0)
(1.07213 0.000106205 0)
(1.06319 0.004689 0)
(1.05672 0.00969808 0)
(1.05428 0.0142383 0)
(1.05662 0.0179532 0)
(1.06215 0.0201189 0)
(1.07089 0.0220781 0)
(1.08197 0.023441 0)
(1.08403 0.0238123 0)
(1.03962 0.0220812 0)
(0.863276 0.015334 0)
(0.525132 0.00464137 0)
(0.166587 0.000568395 0)
(0.192863 6.09863e-05 0)
(0.56423 -0.000809635 0)
(0.894006 -0.00598095 0)
(1.06482 -0.00887729 0)
(1.10694 -0.00769333 0)
(1.10246 -0.00484994 0)
(1.08877 -0.0011606 0)
(1.07716 0.00273995 0)
(1.06806 0.0071667 0)
(1.06157 0.0118559 0)
(1.05815 0.0163976 0)
(1.05833 0.0195595 0)
(1.06296 0.0221655 0)
(1.07188 0.0234218 0)
(1.08303 0.0243093 0)
(1.08231 0.0243498 0)
(1.02774 0.0220322 0)
(0.838066 0.01472 0)
(0.501019 0.00456034 0)
(0.157465 0.00060694 0)
(0.191929 9.82987e-05 0)
(0.556674 -0.00024301 0)
(0.883583 -0.00402263 0)
(1.06316 -0.00615507 0)
(1.11096 -0.00474185 0)
(1.10775 -0.00178983 0)
(1.09398 0.0019504 0)
(1.08171 0.00616119 0)
(1.07156 0.0108845 0)
(1.06362 0.015866 0)
(1.05971 0.0199942 0)
(1.06101 0.0230272 0)
(1.0661 0.0243064 0)
(1.07439 0.0254942 0)
(1.08311 0.026005 0)
(1.07961 0.0254826 0)
(1.0163 0.0224562 0)
(0.813898 0.0144855 0)
(0.478547 0.00457542 0)
(0.148638 0.000623944 0)
(0.192467 8.92019e-05 0)
(0.552248 0.000805807 0)
(0.877261 -0.00159823 0)
(1.06235 -0.00349782 0)
(1.11513 -0.00168918 0)
(1.1134 0.00163072 0)
(1.09969 0.00580414 0)
(1.0873 0.010061 0)
(1.07701 0.0146719 0)
(1.06883 0.019189 0)
(1.06367 0.0232216 0)
(1.06248 0.0257213 0)
(1.06569 0.027311 0)
(1.07399 0.0278295 0)
(1.08292 0.0279436 0)
(1.07529 0.0270359 0)
(1.00114 0.0232488 0)
(0.787087 0.0145835 0)
(0.455236 0.00471132 0)
(0.139351 0.000650831 0)
(0.19447 0.000217175 0)
(0.552428 0.00149927 0)
(0.87229 0.000422847 0)
(1.06305 -0.00017453 0)
(1.12028 0.00201635 0)
(1.11957 0.00562015 0)
(1.10555 0.00997464 0)
(1.09218 0.0147549 0)
(1.08051 0.0198334 0)
(1.07075 0.0248716 0)
(1.06488 0.0285373 0)
(1.06429 0.030389 0)
(1.06852 0.0313328 0)
(1.07583 0.0315523 0)
(1.08146 0.0308787 0)
(1.07021 0.0292408 0)
(0.986386 0.0245575 0)
(0.761042 0.0150141 0)
(0.432678 0.00496119 0)
(0.130075 0.000679138 0)
(0.19854 0.000656507 0)
(0.554979 0.00228255 0)
(0.872476 0.0032619 0)
(1.06543 0.00310913 0)
(1.12616 0.00590254 0)
(1.12659 0.00990502 0)
(1.11236 0.0148932 0)
(1.09876 0.0199599 0)
(1.08698 0.0251792 0)
(1.07666 0.0299196 0)
(1.06891 0.0334289 0)
(1.06539 0.0353217 0)
(1.06635 0.0355637 0)
(1.07346 0.0349909 0)
(1.07978 0.0344066 0)
(1.06288 0.0320534 0)
(0.966814 0.0262492 0)
(0.731215 0.0158365 0)
(0.407905 0.00532088 0)
(0.119854 0.000715431 0)
(0.204815 0.000866084 0)
(0.561484 0.00339203 0)
(0.876067 0.00572474 0)
(1.06995 0.00730445 0)
(1.13295 0.0107249 0)
(1.13423 0.0153461 0)
(1.11942 0.0207526 0)
(1.10439 0.0265437 0)
(1.09048 0.0324948 0)
(1.07777 0.0378665 0)
(1.06891 0.0413647 0)
(1.06606 0.0421289 0)
(1.06848 0.0418437 0)
(1.07452 0.0410869 0)
(1.0759 0.0389841 0)
(1.05434 0.0355008 0)
(0.947393 0.0286071 0)
(0.701442 0.0169852 0)
(0.382924 0.00577572 0)
(0.109329 0.000753603 0)
(0.213174 0.00104876 0)
(0.572697 0.00471426 0)
(0.884144 0.00884635 0)
(1.07726 0.0119018 0)
(1.14105 0.016402 0)
(1.14289 0.021502 0)
(1.1273 0.0277484 0)
(1.11157 0.0340515 0)
(1.0971 0.0403257 0)
(1.08361 0.0456528 0)
(1.07233 0.0484364 0)
(1.06569 0.0493425 0)
(1.0645 0.0484658 0)
(1.06943 0.0463316 0)
(1.07218 0.0443685 0)
(1.04279 0.0399358 0)
(0.921883 0.0313584 0)
(0.666359 0.0184901 0)
(0.354448 0.00629672 0)
(0.0974783 0.000785749 0)
(0.225359 0.00138776 0)
(0.590605 0.00666264 0)
(0.898608 0.0131584 0)
(1.0878 0.0181273 0)
(1.1508 0.0235576 0)
(1.15279 0.0297615 0)
(1.13632 0.0369232 0)
(1.11884 0.0441813 0)
(1.10154 0.0512286 0)
(1.0843 0.0567964 0)
(1.07101 0.0595333 0)
(1.0651 0.0588522 0)
(1.06528 0.0571765 0)
(1.06912 0.0547376 0)
(1.06488 0.0509235 0)
(1.0291 0.045019 0)
(0.895703 0.0349187 0)
(0.630326 0.020292 0)
(0.324909 0.00686775 0)
(0.0851523 0.000815973 0)
(0.241013 0.00193194 0)
(0.613994 0.00847584 0)
(0.919384 0.0178083 0)
(1.10297 0.0250844 0)
(1.16308 0.0322688 0)
(1.16463 0.0394947 0)
(1.14633 0.0479147 0)
(1.12687 0.0558077 0)
(1.1076 0.0629989 0)
(1.08888 0.0683089 0)
(1.07306 0.0703482 0)
(1.06333 0.0694277 0)
(1.05935 0.0665048 0)
(1.06085 0.0623819 0)
(1.05802 0.0583914 0)
(1.01173 0.0511024 0)
(0.861549 0.0386702 0)
(0.587173 0.0222669 0)
(0.290842 0.00739824 0)
(0.0713505 0.00082155 0)
(0.262747 0.00279074 0)
(0.646627 0.0122082 0)
(0.948155 0.0245348 0)
(1.1225 0.0345928 0)
(1.17799 0.0430277 0)
(1.17829 0.0525211 0)
(1.1577 0.0621816 0)
(1.13557 0.0713385 0)
(1.11298 0.0793298 0)
(1.09004 0.0846281 0)
(1.07083 0.0850907 0)
(1.06057 0.0820395 0)
(1.05808 0.0779002 0)
(1.05897 0.0736407 0)
(1.04675 0.0673605 0)
(0.99079 0.0579911 0)
(0.825935 0.0435046 0)
(0.542287 0.0244639 0)
(0.255471 0.0079076 0)
(0.0572833 0.000804106 0)
(0.293808 0.00367633 0)
(0.691399 0.0154146 0)
(0.986495 0.0327643 0)
(1.14859 0.0464475 0)
(1.19653 0.0577831 0)
(1.19418 0.0691944 0)
(1.16979 0.0805457 0)
(1.14402 0.0901337 0)
(1.11779 0.0973735 0)
(1.09161 0.100779 0)
(1.06984 0.100358 0)
(1.05643 0.096659 0)
(1.04951 0.0911518 0)
(1.04708 0.0839838 0)
(1.03482 0.0771904 0)
(0.964952 0.0659611 0)
(0.779258 0.0478519 0)
(0.487378 0.0264398 0)
(0.214579 0.00817205 0)
(0.0418021 0.000711121 0)
(0.330131 0.00707663 0)
(0.749582 0.0246491 0)
(1.03621 0.0465981 0)
(1.18084 0.0644614 0)
(1.21901 0.0772175 0)
(1.21247 0.091659 0)
(1.18345 0.103695 0)
(1.15368 0.113417 0)
(1.12359 0.120439 0)
(1.09388 0.123591 0)
(1.0681 0.120745 0)
(1.05198 0.113514 0)
(1.04527 0.105651 0)
(1.04221 0.098699 0)
(1.01784 0.0886561 0)
(0.933141 0.0740434 0)
(0.730439 0.0533501 0)
(0.432286 0.0286234 0)
(0.17396 0.00822533 0)
(0.0275353 0.000610561 0)
(0.409905 0.0106088 0)
(0.836805 0.035686 0)
(1.10151 0.0671171 0)
(1.22068 0.0897148 0)
(1.24556 0.105739 6.29151e-34)
(1.23188 0.121859 -2.83631e-34)
(1.19635 0.13401 0)
(1.16143 0.142618 0)
(1.12629 0.147377 0)
(1.09102 0.146423 0)
(1.0614 0.139831 0)
(1.04388 0.131859 0)
(1.03479 0.12289 0)
(1.02584 0.111916 0)
(0.998021 0.100709 0)
(0.894971 0.0832956 0)
(0.666782 0.05743 0)
(0.361196 0.02917 0)
(0.124572 0.00778565 0)
(0.0114369 0.000745174 0)
(0.480728 0.0258608 4.64043e-20)
(0.939035 0.0595261 -3.51366e-20)
(1.17272 0.101843 0)
(1.26169 0.12864 2.71984e-20)
(1.27311 0.143889 -2.20568e-20)
(1.25013 0.162017 2.99256e-34)
(1.20764 0.172246 0)
(1.1674 0.178638 1.59497e-20)
(1.12696 0.180869 -5.23914e-20)
(1.08794 0.178029 1.06945e-20)
(1.05681 0.170552 0)
(1.03573 0.157878 -2.7155e-20)
(1.02315 0.144839 -3.2589e-20)
(1.01374 0.133868 5.70311e-20)
(0.965417 0.117862 -4.50491e-20)
(0.833753 0.0931435 0)
(0.580518 0.0616404 -1.62277e-20)
(0.279681 0.0286929 0)
(0.0743245 0.00743954 -8.95322e-20)
(-0.00559021 0.000524359 1.05517e-19)
(0.517048 0.0534966 -6.08767e-21)
(1.00351 0.10251 1.04846e-19)
(1.22281 0.151854 -5.78557e-21)
(1.2953 0.176227 -6.69601e-20)
(1.2977 0.193544 -4.67191e-20)
(1.26558 0.209821 7.60157e-20)
(1.21669 0.21721 0)
(1.1709 0.220899 0)
(1.12528 0.220567 8.33633e-20)
(1.08081 0.214065 0)
(1.04111 0.199582 9.8035e-20)
(1.01626 0.184536 2.91376e-20)
(1.00402 0.171825 4.52924e-22)
(0.980723 0.156499 -6.20961e-20)
(0.92553 0.137286 0)
(0.776097 0.108902 0)
(0.509285 0.0672641 -2.64704e-19)
(0.221729 0.0283506 6.65485e-19)
(0.0439401 0.00603886 -3.93286e-19)
(-0.0165734 -0.00111966 -4.63574e-19)
(0.524751 0.075999 -5.88828e-20)
(1.04076 0.159393 2.261e-20)
(1.25938 0.212399 1.24155e-20)
(1.32148 0.235584 1.16728e-19)
(1.3166 0.251263 1.44919e-20)
(1.27719 0.263102 -1.98093e-19)
(1.22274 0.266555 6.75976e-20)
(1.17151 0.266994 0)
(1.11975 0.262893 -1.76206e-19)
(1.06878 0.252271 1.56548e-19)
(1.02813 0.236579 -2.64551e-19)
(1.00209 0.220813 1.24003e-19)
(0.982055 0.20432 -8.04311e-20)
(0.963494 0.187018 1.81251e-19)
(0.893537 0.164637 0)
(0.732579 0.124777 -6.6177e-20)
(0.468247 0.0756922 0)
(0.205885 0.0305501 3.64181e-19)
(0.0386595 0.00611097 -8.62908e-19)
(-0.0190327 -0.00279365 5.40824e-19)
(0.520726 0.107836 1.60558e-19)
(1.06186 0.216149 -7.06466e-20)
(1.28142 0.277476 -1.51479e-20)
(1.33863 0.300077 0)
(1.32886 0.31371 -8.64969e-20)
(1.2842 0.320467 1.06767e-19)
(1.22513 0.319122 -7.22977e-20)
(1.16923 0.315122 0)
(1.11354 0.306966 1.25177e-19)
(1.05973 0.292355 -1.0998e-19)
(1.01395 0.273272 2.29193e-19)
(0.981037 0.253094 0)
(0.960548 0.234473 -1.70918e-19)
(0.927823 0.214381 9.62714e-20)
(0.861154 0.186389 2.42721e-19)
(0.70334 0.145281 -2.13563e-19)
(0.451449 0.0883717 3.38195e-19)
(0.203659 0.037612 -7.47966e-19)
(0.0422157 0.00749953 4.73368e-19)
(-0.0177303 -0.00366218 -5.92168e-19)
(0.508969 0.131955 -5.31197e-20)
(1.06876 0.269595 3.78772e-20)
(1.29202 0.342997 -5.04321e-20)
(1.34764 0.365663 1.01648e-19)
(1.33445 0.377097 -9.66709e-20)
(1.28617 0.378793 3.36444e-20)
(1.22366 0.372729 3.66584e-21)
(1.16387 0.364462 -1.41481e-19)
(1.10321 0.35181 -1.31227e-19)
(1.04279 0.33293 -2.36335e-19)
(0.991565 0.309666 -4.92897e-19)
(0.958653 0.286717 -1.51997e-19)
(0.935069 0.265548 2.24995e-21)
(0.910283 0.245019 -3.30124e-19)
(0.836628 0.216555 -5.55026e-21)
(0.680847 0.165655 3.10992e-19)
(0.442724 0.102261 -9.36406e-20)
(0.209131 0.0465102 -5.4198e-20)
(0.0516986 0.010501 0)
(-0.013355 -0.00360045 1.2596e-18)
(0.49292 0.152874 0)
(1.06481 0.319862 -2.4353e-21)
(1.29473 0.406508 0)
(1.3499 0.429709 -1.28498e-20)
(1.33428 0.440027 9.30638e-20)
(1.28351 0.437317 -7.86283e-20)
(1.21805 0.42685 7.88418e-20)
(1.15465 0.414225 2.32397e-19)
(1.09035 0.397477 -7.31179e-20)
(1.02781 0.374621 1.16779e-19)
(0.975351 0.3478 2.64995e-19)
(0.938004 0.321272 3.31408e-19)
(0.911323 0.299027 -1.99699e-19)
(0.875399 0.273784 3.5755e-19)
(0.807338 0.239876 -2.83409e-19)
(0.661426 0.189977 0)
(0.438884 0.120468 -7.10961e-19)
(0.220279 0.058661 9.56891e-19)
(0.0655268 0.0165715 7.14288e-20)
(-0.00674347 -0.00237398 -1.33273e-18)
(0.477775 0.172742 -5.08158e-21)
(1.05557 0.367132 -1.99146e-20)
(1.29147 0.466843 6.12774e-20)
(1.34724 0.491515 -8.08721e-20)
(1.32951 0.500777 7.77318e-20)
(1.27673 0.494112 -7.59841e-20)
(1.20914 0.479816 1.56129e-19)
(1.14345 0.463327 -6.96069e-20)
(1.07644 0.442097 -2.94759e-19)
(1.01039 0.414641 -1.53973e-22)
(0.952925 0.383388 -2.88258e-19)
(0.912044 0.354402 -3.56801e-19)
(0.884588 0.32952 2.20683e-19)
(0.857119 0.305019 -1.28689e-19)
(0.785679 0.271707 3.08356e-19)
(0.644418 0.211544 0)
(0.434709 0.139283 -4.41904e-19)
(0.228848 0.0714128 6.52689e-19)
(0.0774605 0.0236939 1.23484e-18)
(-0.00036539 -0.000486537 -1.45223e-18)
(0.463984 0.190568 -7.28508e-20)
(1.04435 0.412397 3.07614e-20)
(1.2848 0.52479 -3.72356e-20)
(1.3405 0.550678 8.35375e-20)
(1.3211 0.5595 1.20703e-20)
(1.26704 0.549378 -1.48827e-19)
(1.19787 0.531457 -9.07209e-20)
(1.13013 0.511092 -8.92598e-20)
(1.06072 0.486298 -1.66488e-19)
(0.991734 0.455652 2.67893e-19)
(0.931411 0.420365 2.91214e-19)
(0.890353 0.389265 5.66159e-19)
(0.860712 0.361534 0)
(0.822154 0.333466 6.50683e-21)
(0.758488 0.293691 -8.47881e-19)
(0.626855 0.237125 1.98602e-19)
(0.431009 0.158315 9.58031e-19)
(0.236451 0.0854012 -2.82731e-19)
(0.0883581 0.0317262 5.87177e-19)
(0.00569839 0.00188957 -4.89409e-20)
(0.453525 0.208358 5.83504e-21)
(1.03167 0.454366 5.09894e-20)
(1.27509 0.57931 -1.38002e-20)
(1.33123 0.607186 8.81178e-20)
(1.31044 0.615157 -1.51545e-19)
(1.25523 0.601824 1.47538e-19)
(1.1848 0.58088 9.38855e-20)
(1.11562 0.557365 2.66497e-19)
(1.04406 0.52904 3.34017e-19)
(0.972215 0.494197 -3.09826e-19)
(0.91053 0.455225 0)
(0.865296 0.420825 -2.1437e-19)
(0.833309 0.390198 2.46121e-19)
(0.805166 0.362584 3.10974e-19)
(0.737515 0.325381 -1.79885e-19)
(0.609874 0.257758 -4.38359e-19)
(0.42488 0.177061 -1.30726e-19)
(0.240906 0.0990278 -1.88383e-21)
(0.0962614 0.0395902 0)
(0.0103893 0.00423276 0)
(0.445495 0.224529 -7.66622e-20)
(1.02032 0.495184 0)
(1.26423 0.631389 1.04355e-21)
(1.31976 0.6608 -1.33698e-20)
(1.29777 0.668303 1.72948e-19)
(1.24179 0.652238 -4.37682e-20)
(1.17035 0.628439 9.53903e-20)
(1.09962 0.601768 -1.8025e-19)
(1.02615 0.570519 2.53367e-19)
(0.95223 0.532597 -1.02047e-19)
(0.887362 0.490185 1.6695e-19)
(0.841575 0.451853 6.80158e-19)
(0.810472 0.420534 1.43434e-20)
(0.771576 0.38844 -3.24377e-19)
(0.710967 0.344417 6.01215e-19)
(0.590779 0.282022 3.89355e-21)
(0.417182 0.19438 1.39858e-19)
(0.241312 0.111959 -6.66884e-19)
(0.100358 0.0462924 6.87398e-19)
(0.0135835 0.00625396 -8.09853e-19)
(0.438394 0.24211 2.69089e-23)
(1.00779 0.532488 0)
(1.25179 0.679818 0)
(1.30707 0.711705 -1.03898e-21)
(1.28413 0.718353 -5.08334e-20)
(1.22735 0.69962 6.88247e-20)
(1.15501 0.673443 -1.77229e-19)
(1.0833 0.644347 0)
(1.00833 0.610338 -3.7373e-19)
(0.932025 0.569065 4.48932e-19)
(0.865201 0.523633 4.7657e-19)
(0.816669 0.482327 -2.49724e-19)
(0.783185 0.447128 -3.02468e-19)
(0.754492 0.414418 7.09414e-19)
(0.68975 0.37344 -2.13694e-19)
(0.57188 0.298643 -2.54992e-19)
(0.40526 0.210115 -1.52563e-19)
(0.237686 0.121929 -7.20139e-19)
(0.100509 0.0516482 1.0559e-19)
(0.0152063 0.00753433 8.76046e-19)
(0.434066 0.260125 -3.77879e-20)
(0.99761 0.569469 -5.01251e-20)
(1.23914 0.726014 2.36333e-20)
(1.29329 0.75957 -1.97287e-22)
(1.26944 0.765777 -5.35492e-20)
(1.21204 0.744896 1.10474e-19)
(1.13906 0.716476 0)
(1.0664 0.684859 1.09086e-19)
(0.990028 0.648607 -8.60149e-20)
(0.912048 0.604819 7.49092e-19)
(0.842031 0.555777 -1.08123e-19)
(0.793426 0.510057 1.23718e-19)
(0.760494 0.474783 0)
(0.720741 0.43827 -3.8422e-19)
(0.662571 0.387221 4.65729e-19)
(0.550993 0.318846 0)
(0.393557 0.223227 -3.28625e-19)
(0.231736 0.130873 9.66955e-19)
(0.0980614 0.0550541 1.14605e-19)
(0.0153314 0.00834533 -1.0786e-18)
(0.431255 0.277129 -9.52815e-20)
(0.986757 0.60305 1.21952e-19)
(1.22568 0.768773 0)
(1.27913 0.804753 1.7308e-20)
(1.25456 0.810309 0)
(1.19664 0.78727 -1.43784e-19)
(1.12319 0.756915 0)
(1.04994 0.723462 0)
(0.972224 0.685111 -1.14108e-19)
(0.891648 0.63884 -7.12131e-19)
(0.819376 0.587303 -8.8091e-19)
(0.76751 0.539828 1.44855e-19)
(0.73172 0.498928 5.22971e-19)
(0.70321 0.459379 4.23422e-19)
(0.640667 0.412617 -1.49435e-18)
(0.530791 0.329171 -5.9869e-19)
(0.378385 0.234039 3.508e-19)
(0.222976 0.136709 0)
(0.0940822 0.0567554 9.81665e-19)
(0.0144559 0.00868619 -1.16179e-18)
(0.429644 0.292757 1.1386e-19)
(0.977904 0.636417 -1.41728e-19)
(1.2127 0.809623 0)
(1.26468 0.847001 -1.11837e-20)
(1.23938 0.852216 -1.22045e-21)
(1.18105 0.827555 0)
(1.10723 0.795499 5.46123e-20)
(1.03319 0.760074 7.57932e-20)
(0.954098 0.720087 -2.14448e-19)
(0.872166 0.67208 9.4299e-20)
(0.797339 0.617417 0)
(0.743905 0.565977 5.99984e-19)
(0.708716 0.524085 5.51164e-21)
(0.668428 0.480144 2.2846e-19)
(0.613035 0.419809 2.71297e-19)
(0.509199 0.344258 0)
(0.36447 0.241148 -5.72171e-19)
(0.21324 0.140204 1.12142e-18)
(0.0889499 0.057301 -1.18745e-18)
(0.0131722 0.0085423 2.50182e-18)
(0.428285 0.307727 0)
(0.968161 0.666511 0)
(1.1995 0.847138 -6.93765e-20)
(1.25041 0.886777 0)
(1.2245 0.891544 0)
(1.1658 0.865185 -1.17613e-19)
(1.09173 0.831599 5.58656e-20)
(1.01725 0.794822 1.77204e-20)
(0.937078 0.753286 -4.89488e-20)
(0.852655 0.703459 0)
(0.774729 0.647038 -1.34282e-19)
(0.717521 0.594116 -4.89442e-19)
(0.678596 0.545259 -5.89776e-19)
(0.649171 0.49574 -2.37327e-19)
(0.590066 0.440045 2.93792e-19)
(0.488058 0.347355 -6.92325e-19)
(0.348182 0.245623 1.23136e-18)
(0.203516 0.140941 1.86103e-21)
(0.083909 0.0569745 -1.13593e-18)
(0.0119709 0.00831549 -1.6871e-19)
(0.427288 0.322191 0)
(0.960389 0.696943 -1.15505e-19)
(1.18715 0.883158 8.47745e-20)
(1.23629 0.923878 0)
(1.20973 0.928349 0)
(1.15072 0.900782 2.35056e-19)
(1.07644 0.86597 0)
(1.00136 0.827715 0)
(0.919947 0.785095 -4.70375e-19)
(0.833896 0.734315 1.30612e-19)
(0.75334 0.6757 -1.19048e-18)
(0.694158 0.618696 0)
(0.654241 0.567957 -6.41002e-19)
(0.612484 0.513295 1.05236e-20)
(0.560233 0.438947 -9.44926e-19)
(0.465769 0.355091 3.72418e-19)
(0.335083 0.244908 1.36979e-21)
(0.195661 0.138421 -1.28954e-18)
(0.0804162 0.0551563 6.11215e-19)
(0.00984483 0.00658459 1.80462e-19)
(0.426233 0.336392 0)
(0.951825 0.724181 -1.59211e-19)
(1.17476 0.916085 8.94776e-20)
(1.2226 0.958792 1.19239e-19)
(1.19547 0.962927 -9.8319e-21)
(1.13619 0.93401 2.3421e-20)
(1.06182 0.898014 -3.27425e-20)
(0.986477 0.858817 4.48645e-19)
(0.904035 0.815102 5.03168e-19)
(0.815457 0.762967 9.94466e-19)
(0.731854 0.703363 9.89135e-19)
(0.66779 0.645405 1.74022e-19)
(0.622543 0.587373 9.22192e-19)
(0.590371 0.523927 5.70184e-19)
(0.534382 0.453752 6.78254e-19)
(0.44393 0.347353 -4.07549e-19)
(0.31919 0.238163 -4.71729e-19)
(0.192302 0.132505 5.53306e-19)
(0.0840768 0.059689 -3.28576e-19)
(0.0154433 0.0142534 5.8441e-19)
(0.425456 0.350104 2.23775e-19)
(0.945135 0.751917 2.49402e-19)
(1.16326 0.947942 5.18557e-20)
(1.20923 0.991315 1.58563e-20)
(1.18153 0.995121 -2.09886e-21)
(1.12206 0.965298 -6.50626e-20)
(1.04763 0.928469 3.14215e-20)
(0.971785 0.888219 -1.96978e-20)
(0.88816 0.843838 -5.85706e-19)
(0.798175 0.791538 -1.07937e-18)
(0.711884 0.731456 6.86643e-20)
(0.644693 0.669603 0)
(0.597246 0.609246 0)
(0.549874 0.54038 -2.9734e-19)
(0.499178 0.44411 -1.1108e-18)
(0.419054 0.344166 8.7805e-19)
(0.313866 0.219082 5.15975e-19)
(0.201233 0.113252 0)
(0.0993724 0.0323094 1.0518e-18)
(0.00932146 -0.0115143 -6.23529e-19)
(0.424575 0.363335 -1.18697e-19)
(0.937521 0.776263 1.04956e-19)
(1.1517 0.976837 -1.24532e-19)
(1.1964 1.0219 -1.02242e-19)
(1.16823 1.02543 -1.6621e-20)
(1.10859 0.994522 -2.07992e-20)
(1.03421 0.956793 0)
(0.958209 0.915936 -5.63872e-19)
(0.87375 0.870851 7.13751e-20)
(0.781512 0.817743 0)
(0.69193 0.757195 0)
(0.619085 0.695073 1.11277e-19)
(0.563408 0.628607 1.49752e-19)
(0.523337 0.547948 -3.21343e-19)
(0.46672 0.456251 7.97347e-19)
(0.388591 0.32113 -9.56867e-19)
(0.291547 0.194924 -1.1054e-18)
(0.216146 0.0977387 9.7936e-19)
(0.161651 0.0793248 -3.74069e-19)
(0.112331 0.0778953 2.17639e-19)
(0.423867 0.375723 1.48548e-19)
(0.931569 0.801218 0)
(1.14104 1.00497 0)
(1.18396 1.05033 -2.83267e-20)
(1.15534 1.05348 2.29329e-20)
(1.09564 1.0219 -2.03088e-20)
(1.02133 0.983657 1.41309e-19)
(0.944946 0.942112 5.77e-19)
(0.859481 0.896705 1.06271e-18)
(0.766053 0.843962 -8.13628e-20)
(0.673767 0.784246 1.68366e-19)
(0.597334 0.720121 -9.9544e-19)
(0.538351 0.651794 -9.93671e-19)
(0.47759 0.567381 -1.72627e-19)
(0.417571 0.441055 0)
(0.349675 0.315426 -5.80883e-21)
(0.269568 0.123976 6.09674e-19)
(0.252318 -0.00461944 -1.02475e-18)
(0.217298 -0.0989707 7.78863e-19)
(0.0868081 -0.0975519 6.45033e-19)
(0.422843 0.387788 -3.28065e-19)
(0.924488 0.822698 -1.47919e-19)
(1.13022 1.03032 6.94239e-21)
(1.172 1.07725 5.83926e-20)
(1.14298 1.08027 0)
(1.08317 1.04788 -6.10367e-20)
(1.00894 1.00904 -2.04102e-19)
(0.932485 0.967267 -2.02281e-21)
(0.846381 0.921625 -5.56775e-19)
(0.750831 0.868632 -7.98647e-20)
(0.655124 0.809101 7.41811e-20)
(0.572607 0.746188 8.74561e-19)
(0.501454 0.673717 9.69488e-19)
(0.445361 0.57547 1.68335e-19)
(0.377066 0.461875 8.59984e-19)
(0.283376 0.282301 0)
(0.159369 0.108668 0)
(-0.00380101 0.190526 7.02932e-19)
(-0.0783978 0.630101 -2.84537e-20)
(0.00836236 1.54043 -8.68935e-19)
(0.422086 0.399098 1.81207e-19)
(0.919088 0.845314 4.15852e-19)
(1.12028 1.05552 -5.72322e-19)
(1.16033 1.10262 2.88743e-19)
(1.13086 1.10541 -8.77934e-21)
(1.07097 1.07274 -1.27078e-20)
(0.996823 1.03389 0)
(0.919998 0.99201 -4.80601e-19)
(0.83295 0.946706 0)
(0.736327 0.894879 1.12359e-18)
(0.637879 0.83745 -9.05608e-20)
(0.551001 0.774869 1.01545e-19)
(0.477135 0.703468 1.11276e-18)
(0.39113 0.609954 -3.65519e-19)
(0.285272 0.451086 -4.37082e-19)
(0.190255 0.33514 0)
(0.0812058 0.482287 0)
(0.0252282 1.34526 0)
(0.0717707 2.46795 -3.99121e-19)
(0.098756 2.91298 -2.46102e-19)
(0.42071 0.409897 0)
(0.912434 0.864219 0)
(1.11012 1.07795 2.08658e-19)
(1.14917 1.12672 -2.34715e-19)
(1.11927 1.12969 1.06101e-19)
(1.05926 1.09659 2.05789e-20)
(0.985183 1.05756 2.65072e-20)
(0.908342 1.01598 -2.06377e-20)
(0.820854 0.971155 7.87298e-20)
(0.722189 0.91998 -1.2895e-18)
(0.619965 0.863631 1.64015e-19)
(0.527 0.804368 8.75959e-19)
(0.436874 0.73263 -1.10828e-18)
(0.355042 0.620751 -1.22094e-18)
(0.266002 0.510034 4.10541e-19)
(0.185354 0.649623 0)
(0.117776 1.57219 5.63991e-19)
(0.12072 2.69713 6.13836e-19)
(0.12855 3.08923 -6.86046e-19)
(0.120732 3.22281 7.33799e-19)
(0.419692 0.420429 0)
(0.907539 0.884576 3.66625e-19)
(1.10092 1.10051 -5.23062e-20)
(1.13835 1.14936 3.2775e-19)
(1.10802 1.15224 -1.1137e-19)
(1.04794 1.11919 0)
(0.973979 1.08056 0)
(0.896849 1.03938 0)
(0.808542 0.9955 4.42017e-19)
(0.709094 0.946272 5.93815e-20)
(0.604803 0.893037 0)
(0.507426 0.835713 -8.70811e-19)
(0.420666 0.767804 0)
(0.302162 0.667941 8.73523e-19)
(0.202627 0.724217 -5.90443e-19)
(0.149881 1.46393 -4.74183e-19)
(0.152966 2.68432 -1.10045e-18)
(0.175591 3.12648 -5.79333e-19)
(0.166351 3.26635 -7.83058e-19)
(0.152918 3.30657 5.805e-19)
(0.418157 0.429914 -1.27992e-19)
(0.901252 0.900938 1.51708e-20)
(1.09145 1.12022 -5.81622e-20)
(1.12807 1.17088 -2.53612e-19)
(1.09732 1.17422 0)
(1.03715 1.14105 0)
(0.963244 1.10254 0)
(0.886167 1.06203 3.37001e-20)
(0.797652 1.01916 -5.58893e-19)
(0.696492 0.971409 0)
(0.588754 0.920318 0)
(0.487802 0.867914 0)
(0.377414 0.79722 0)
(0.307877 0.759867 6.39576e-19)
(0.268605 1.15233 1.57162e-18)
(0.243437 2.39255 4.63507e-19)
(0.258828 3.08247 9.3107e-19)
(0.25345 3.28093 -7.13504e-19)
(0.204946 3.34644 2.62477e-19)
(0.172858 3.35937 0)
(0.416973 0.439238 1.31701e-19)
(0.896675 0.919742 -8.13615e-19)
(1.08278 1.14104 -2.18938e-19)
(1.11789 1.19167 -4.83073e-20)
(1.08674 1.19501 2.5894e-20)
(1.02654 1.16211 -9.56664e-20)
(0.952816 1.12431 -1.95579e-21)
(0.875546 1.08454 -3.7251e-19)
(0.786364 1.04305 0)
(0.684895 0.997884 -7.55995e-20)
(0.576526 0.950686 6.87726e-20)
(0.471575 0.899574 0)
(0.379425 0.844143 0)
(0.320577 0.949268 -8.00848e-19)
(0.269556 1.85406 9.94138e-20)
(0.26602 2.94435 -3.48271e-19)
(0.289775 3.28462 7.27899e-19)
(0.261607 3.38289 5.24968e-19)
(0.196616 3.40735 -7.12001e-19)
(0.172055 3.41721 3.52223e-19)
(0.414942 0.448806 2.58561e-19)
(0.889797 0.935361 7.92844e-19)
(1.07287 1.16031 2.63102e-19)
(1.10741 1.21301 0)
(1.0759 1.21698 0)
(1.01573 1.18401 7.44074e-20)
(0.942155 1.14631 6.16637e-20)
(0.865128 1.10731 3.31941e-19)
(0.776149 1.06704 2.17549e-20)
(0.673581 1.02381 9.64985e-19)
(0.562656 0.979301 -1.14444e-18)
(0.451279 0.930418 0)
(0.374739 0.916405 0)
(0.333791 1.32053 -5.45754e-19)
(0.331989 2.49259 -6.56193e-19)
(0.37575 3.19635 0)
(0.400415 3.36589 -7.361e-19)
(0.330106 3.4286 4.96212e-20)
(0.261343 3.47373 3.4313e-19)
(0.239072 3.49908 -1.12628e-19)
(0.413117 0.458693 -4.91704e-19)
(0.884499 0.956142 -3.80642e-19)
(1.06304 1.18304 0)
(1.09602 1.2352 0)
(1.06424 1.23893 0)
(1.0042 1.20611 0)
(0.931063 1.16912 -7.33795e-20)
(0.854133 1.13083 2.90066e-19)
(0.764829 1.092 0)
(0.662735 1.05153 -8.7851e-19)
(0.553142 1.01097 2.0528e-18)
(0.444202 0.972425 8.39655e-20)
(0.395153 1.04341 1.12581e-19)
(0.385704 1.74695 8.89388e-19)
(0.397776 2.90178 -4.78567e-19)
(0.436753 3.31699 0)
(0.420033 3.43915 2.06555e-19)
(0.334457 3.52783 9.13666e-20)
(0.259925 3.59161 1.48886e-19)
(0.18454 3.57107 -1.34534e-20)
(0.41012 0.46913 2.33796e-19)
(0.875761 0.972751 -3.88671e-19)
(1.05122 1.20391 0)
(1.0839 1.25845 -7.07774e-20)
(1.05186 1.26285 2.43586e-19)
(0.992048 1.22973 0)
(0.919298 1.1925 0)
(0.842969 1.15476 -5.02943e-19)
(0.754492 1.11705 -5.61393e-20)
(0.652239 1.07852 8.60926e-19)
(0.537677 1.04009 -9.75392e-19)
(0.446964 1.01914 5.70979e-19)
(0.408455 1.2238 0)
(0.420408 2.18712 -4.71531e-19)
(0.463522 3.14454 3.0935e-19)
(0.527686 3.41969 1.94133e-19)
(0.519119 3.51543 0)