/*--------------------------------*- C++ -*----------------------------------*\
| =========                 |                                                 |
| \\      /  F ield         | OpenFOAM: The Open Source CFD Toolbox           |
|  \\    /   O peration     | Version:  v2012                                 |
|   \\  /    A nd           | Website:  www.openfoam.com                      |
|    \\/     M anipulation  |                                                 |
\*---------------------------------------------------------------------------*/
FoamFile
{
    version     2.0;
    format      ascii;
    class       volScalarField;
    location    "42";
    object      p;
}
// * * * * * * * * * * * * * * * * * * * * * * * * * * * * * * * * * * * * * //

dimensions      [0 2 -2 0 0 0 0];


internalField   nonuniform List<scalar> 
2200
(
0.787556
0.766055
0.750145
0.73447
0.719853
0.707322
0.696949
0.688829
0.683107
0.680108
0.68054
0.684313
0.690599
0.699126
0.709782
0.722527
0.737296
0.753177
0.769198
0.790702
0.719979
0.716718
0.713792
0.709673
0.704207
0.697728
0.691101
0.685124
0.680588
0.67814
0.678572
0.681829
0.686965
0.693386
0.700338
0.707062
0.712703
0.716819
0.719698
0.723041
0.680083
0.680301
0.682356
0.683691
0.684068
0.683201
0.681203
0.678503
0.675924
0.674389
0.674878
0.677267
0.680507
0.683702
0.686025
0.687036
0.686761
0.685711
0.683999
0.683757
0.657637
0.659087
0.661674
0.664113
0.666544
0.668548
0.669679
0.669883
0.669476
0.669145
0.66971
0.671011
0.672153
0.672499
0.671781
0.67009
0.667914
0.665702
0.663106
0.661694
0.643294
0.645265
0.648079
0.650915
0.653769
0.656588
0.659026
0.66086
0.662042
0.662789
0.663443
0.663834
0.663529
0.662361
0.660455
0.658037
0.655456
0.652719
0.649931
0.648002
0.635997
0.637594
0.639795
0.642319
0.644969
0.647612
0.650172
0.652557
0.654519
0.655947
0.656719
0.656657
0.655764
0.654186
0.652241
0.650059
0.647708
0.645353
0.643246
0.641669
0.632676
0.633698
0.634961
0.636809
0.638929
0.641063
0.643211
0.645438
0.647586
0.649338
0.650257
0.650164
0.649298
0.648031
0.646588
0.644998
0.64327
0.641675
0.640548
0.63953
0.6301
0.630773
0.631397
0.632683
0.634278
0.635939
0.637651
0.639515
0.641496
0.643351
0.644463
0.644643
0.644213
0.643509
0.642651
0.641634
0.640526
0.639564
0.639098
0.638424
0.626933
0.627377
0.627774
0.628764
0.630015
0.631375
0.632829
0.634429
0.636178
0.638006
0.639367
0.640001
0.640138
0.639966
0.639586
0.639028
0.638375
0.637789
0.637574
0.637114
0.623003
0.623295
0.623653
0.624528
0.625643
0.626904
0.628297
0.629823
0.631498
0.633334
0.635001
0.636142
0.636768
0.637013
0.636957
0.636696
0.636308
0.635914
0.635754
0.635438
0.618514
0.618718
0.619087
0.619907
0.620986
0.622276
0.623773
0.62546
0.627325
0.629394
0.631446
0.633041
0.634019
0.634505
0.634649
0.634552
0.634317
0.634042
0.633895
0.633669
0.613495
0.613641
0.614018
0.614841
0.615995
0.617428
0.619133
0.621095
0.623318
0.625823
0.628333
0.630297
0.631553
0.632235
0.632544
0.632614
0.632504
0.632347
0.632229
0.632052
0.608078
0.608176
0.60855
0.609389
0.610643
0.612258
0.61421
0.616497
0.619153
0.622189
0.625274
0.627712
0.62931
0.630265
0.630758
0.630966
0.631032
0.631007
0.630928
0.630786
0.602399
0.602454
0.602836
0.603686
0.605007
0.606755
0.608936
0.611616
0.614805
0.618525
0.622315
0.625336
0.627365
0.62867
0.62947
0.629909
0.630167
0.630256
0.630221
0.6301
0.5963
0.596334
0.596742
0.597623
0.599062
0.600988
0.603423
0.606486
0.610318
0.614873
0.6195
0.623192
0.625769
0.627544
0.628767
0.629558
0.630043
0.630264
0.63028
0.630162
0.589606
0.589551
0.589974
0.590954
0.592616
0.594778
0.597519
0.601007
0.60542
0.610836
0.616497
0.62116
0.624579
0.627056
0.628802
0.62995
0.630652
0.631009
0.631076
0.630959
0.582137
0.582121
0.582526
0.583597
0.585483
0.587966
0.591137
0.595157
0.600284
0.606704
0.613674
0.619665
0.624097
0.6273
0.629589
0.63113
0.632094
0.632601
0.632722
0.63261
0.57377
0.573776
0.574196
0.575383
0.577589
0.580501
0.5843
0.589194
0.595431
0.603221
0.611754
0.619091
0.624604
0.628596
0.631413
0.633356
0.634616
0.635268
0.635437
0.635325
0.564104
0.564056
0.564603
0.566083
0.568643
0.572142
0.576839
0.582968
0.590781
0.600447
0.610804
0.619563
0.626035
0.630768
0.634246
0.636719
0.638309
0.639125
0.639359
0.639241
0.552611
0.552512
0.553158
0.555002
0.558149
0.562449
0.568202
0.575729
0.585396
0.597298
0.609879
0.620412
0.62823
0.634114
0.638436
0.641443
0.643398
0.644399
0.644692
0.644556
0.539094
0.538958
0.539677
0.541802
0.545545
0.550783
0.557845
0.567051
0.578829
0.593302
0.608596
0.621442
0.631185
0.63838
0.643639
0.647444
0.649908
0.651143
0.651504
0.651335
0.522419
0.522321
0.523275
0.525841
0.530427
0.53697
0.54582
0.557327
0.571882
0.589504
0.607938
0.623393
0.635026
0.643771
0.650263
0.654941
0.657972
0.659449
0.659864
0.659649
0.501517
0.501351
0.502631
0.506046
0.512058
0.520649
0.532174
0.546959
0.565176
0.586623
0.608526
0.626724
0.640396
0.650649
0.658316
0.663935
0.667557
0.66926
0.669718
0.669442
0.474134
0.474143
0.476212
0.481052
0.489385
0.501154
0.516519
0.535583
0.558304
0.584299
0.610207
0.631374
0.647169
0.65907
0.66804
0.674507
0.678626
0.68051
0.680979
0.680653
0.437417
0.437679
0.441225
0.448963
0.461231
0.477878
0.49846
0.522866
0.5509
0.582071
0.612414
0.636876
0.655088
0.668812
0.679104
0.686569
0.6912
0.693215
0.693657
0.693253
0.388056
0.388489
0.395511
0.408469
0.42711
0.450795
0.478271
0.509256
0.543492
0.580424
0.615551
0.643457
0.66412
0.679742
0.691573
0.700052
0.705076
0.707063
0.70733
0.706927
0.322259
0.325135
0.340372
0.361694
0.389226
0.421637
0.457142
0.495585
0.536771
0.580129
0.620654
0.652625
0.676478
0.694635
0.708361
0.718336
0.724059
0.726089
0.726173
0.72598
0.247167
0.256817
0.282232
0.313401
0.351021
0.392465
0.436159
0.482404
0.531002
0.581388
0.62802
0.664903
0.692399
0.713487
0.729762
0.741408
0.747887
0.749733
0.749706
0.749782
0.180072
0.195025
0.226852
0.266824
0.313958
0.364298
0.415998
0.469973
0.525869
0.582998
0.63543
0.676818
0.707893
0.731681
0.749773
0.762791
0.770002
0.772511
0.772947
0.772962
0.129092
0.142508
0.17964
0.225624
0.280009
0.33775
0.396827
0.458045
0.520828
0.584559
0.642736
0.688255
0.722274
0.748259
0.768022
0.78259
0.790163
0.79303
0.79342
0.793491
0.0868976
0.0995176
0.140349
0.190246
0.250057
0.313663
0.379135
0.446877
0.516047
0.585992
0.649125
0.698519
0.735168
0.762955
0.783926
0.799154
0.807401
0.810628
0.811116
0.811229
0.050573
0.0634055
0.106832
0.159638
0.223761
0.292095
0.362971
0.43631
0.511028
0.586339
0.654572
0.707523
0.746281
0.775475
0.797432
0.813002
0.821647
0.825243
0.825862
0.825972
0.0188475
0.0318573
0.0772804
0.132626
0.200347
0.272611
0.348024
0.42617
0.506
0.586767
0.659719
0.715257
0.755823
0.786167
0.808403
0.824258
0.833432
0.837221
0.83801
0.838094
-0.00965712
0.00339104
0.0505014
0.108233
0.179068
0.254667
0.334008
0.416442
0.500894
0.586295
0.662662
0.721347
0.763602
0.794643
0.817544
0.833648
0.843149
0.847223
0.848115
0.848185
-0.0356477
-0.0226386
0.0257183
0.0857452
0.159266
0.237797
0.320579
0.406733
0.495128
0.584668
0.665471
0.726844
0.770212
0.802244
0.825559
0.841792
0.851783
0.855826
0.856846
0.856791
-0.0600589
-0.0467597
0.00248241
0.0646431
0.140528
0.221635
0.307377
0.396751
0.488898
0.582743
0.667426
0.730965
0.776423
0.809134
0.83297
0.849398
0.85899
0.863262
0.864144
0.863962
-0.0830087
-0.0694381
-0.0195156
0.0445165
0.122459
0.205885
0.294289
0.386652
0.48229
0.579802
0.667937
0.735139
0.782188
0.815701
0.839718
0.856078
0.865642
0.86973
0.870729
0.870606
-0.104612
-0.0910706
-0.0404439
0.0251752
0.10488
0.190407
0.281229
0.376278
0.474916
0.576024
0.668482
0.738805
0.787583
0.822127
0.846224
0.862524
0.871888
0.875936
0.876817
0.87674
-0.125296
-0.11165
-0.060477
0.00645555
0.0876543
0.175058
0.268032
0.365444
0.466871
0.571568
0.667918
0.741277
0.792842
0.828536
0.852923
0.868985
0.878147
0.881915
0.882754
0.882647
-0.145552
-0.131359
-0.0797742
-0.0117399
0.070718
0.159759
0.254646
0.354247
0.458369
0.566387
0.666643
0.743801
0.798021
0.835193
0.860101
0.875825
0.884338
0.887825
0.888428
0.888321
-0.165465
-0.150462
-0.0985058
-0.0294878
0.0540445
0.14451
0.241118
0.342776
0.449415
0.560459
0.664275
0.745391
0.802829
0.842404
0.868026
0.883177
0.890852
0.893441
0.893853
0.893703
-0.18493
-0.169145
-0.116772
-0.046828
0.0376439
0.129363
0.227521
0.331042
0.439858
0.553513
0.660874
0.74624
0.807524
0.849933
0.877038
0.891689
0.897731
0.898846
0.898803
0.898677
-0.203804
-0.187441
-0.134589
-0.0637595
0.0215494
0.114362
0.213862
0.318979
0.429666
0.54574
0.656548
0.745807
0.811346
0.857834
0.887501
0.902154
0.906072
0.903851
0.903163
0.903968
-0.222056
-0.205272
-0.151908
-0.0802475
0.00580682
0.0995393
0.200148
0.306615
0.419026
0.537334
0.650884
0.744052
0.81452
0.865713
0.899449
0.915559
0.917683
0.911261
0.905887
0.904183
-0.23966
-0.222534
-0.168657
-0.0962442
-0.00954026
0.0849451
0.18645
0.294072
0.408018
0.528137
0.643813
0.740814
0.816035
0.873187
0.912652
0.932694
0.937288
0.924844
0.922817
0.927149
-0.256623
-0.23915
-0.184774
-0.1117
-0.024437
0.0706566
0.17288
0.281455
0.396634
0.518183
0.635826
0.735912
0.815777
0.879138
0.926092
0.953258
0.963671
0.93583
0.893663
0.855876
-0.272879
-0.255128
-0.200291
-0.12668
-0.0389795
0.056571
0.159323
0.26858
0.384611
0.507328
0.626657
0.728804
0.81262
0.882381
0.938369
0.976727
1.00142
0.989339
1.00616
1.06191
-0.288389
-0.270521
-0.215308
-0.141324
-0.0533383
0.042476
0.145507
0.255106
0.371596
0.495122
0.615544
0.71899
0.805546
0.880131
0.941077
0.983454
1.00157
0.985669
0.947216
0.96002
-0.303125
-0.285305
-0.22978
-0.155575
-0.0674357
0.0284675
0.131559
0.241213
0.357801
0.481611
0.602405
0.706194
0.792758
0.868016
0.928821
0.969535
0.963079
0.913214
0.851026
0.839324
-0.31708
-0.299474
-0.243711
-0.169438
-0.0812716
0.0145437
0.117489
0.226941
0.343273
0.466796
0.587248
0.690145
0.774259
0.844344
0.898775
0.912103
0.879992
0.80599
0.732787
0.713154
-0.330292
-0.313021
-0.25711
-0.182932
-0.0948756
0.000685172
0.103306
0.212327
0.328046
0.450679
0.569973
0.670598
0.748841
0.806935
0.83678
0.826715
0.773179
0.673136
0.586718
0.566066
-0.343216
-0.326353
-0.27038
-0.196432
-0.108605
-0.0134213
0.0887376
0.197127
0.311892
0.433066
0.550302
0.647093
0.718151
0.760388
0.756194
0.723138
0.615851
0.494947
0.388542
0.36275
-0.356748
-0.34026
-0.284212
-0.210565
-0.123041
-0.0282663
0.0733618
0.180983
0.294541
0.413771
0.52807
0.619442
0.683353
0.702213
0.668374
0.583158
0.428652
0.277218
0.149184
0.122677
-0.371414
-0.355158
-0.298942
-0.225574
-0.138363
-0.043982
0.0570781
0.163823
0.275972
0.392788
0.503131
0.588581
0.641679
0.633292
0.57987
0.432138
0.232721
0.0204849
-0.159197
-0.206563
-0.387318
-0.37113
-0.314613
-0.241472
-0.154553
-0.0605469
0.039907
0.145679
0.256255
0.370241
0.475494
0.555542
0.593885
0.553941
0.466653
0.27879
0.0466754
-0.242949
-0.56542
-0.711598
-0.404545
-0.38828
-0.331359
-0.258355
-0.171659
-0.0780194
0.0217872
0.126495
0.235342
0.346211
0.445656
0.519885
0.540486
0.46955
0.333624
0.126779
-0.109345
-0.455563
-1.0461
-1.62
-0.423163
-0.406685
-0.349228
-0.276268
-0.189704
-0.0963954
0.00275777
0.106359
0.213407
0.321094
0.414575
0.481285
0.484277
0.395245
0.204546
-0.0315867
-0.237208
-0.475678
-1.0388
-2.57119
-0.443191
-0.426436
-0.368347
-0.29535
-0.20884
-0.115862
-0.0174075
0.0850003
0.190116
0.294507
0.382058
0.439295
0.422803
0.336481
0.109842
-0.131295
-0.282121
-0.32238
-0.316646
-0.708612
-0.464548
-0.447672
-0.388853
-0.315879
-0.229471
-0.136916
-0.0393211
0.0616671
0.16453
0.265
0.347054
0.394218
0.362057
0.288246
0.0593905
-0.147092
-0.260408
-0.269729
-0.217618
-0.258762
-0.487095
-0.47028
-0.410775
-0.337934
-0.25166
-0.159664
-0.0631204
0.0362036
0.136446
0.232481
0.309958
0.347156
0.307949
0.23582
0.0262062
-0.1387
-0.221989
-0.229567
-0.277303
-0.282706
-0.510796
-0.494029
-0.433972
-0.361479
-0.275403
-0.18413
-0.0888409
0.00857736
0.105878
0.197311
0.270123
0.298319
0.260748
0.176078
-0.00134583
-0.129003
-0.201339
-0.17478
-0.196443
-0.198141
-0.535463
-0.518516
-0.4584
-0.386451
-0.300532
-0.210212
-0.116384
-0.0210913
0.0729748
0.1599
0.228257
0.246176
0.219312
0.10842
-0.0360593
-0.123654
-0.167663
-0.210739
-0.186682
-0.194797
-0.560737
-0.543422
-0.483857
-0.412614
-0.32683
-0.237755
-0.145561
-0.0525645
0.0378996
0.120481
0.184694
0.192572
0.176805
0.0466693
-0.0733801
-0.139409
-0.123576
-0.182792
-0.161445
-0.166358
-0.585863
-0.568322
-0.510228
-0.439633
-0.353939
-0.266468
-0.176046
-0.0854934
0.0009015
0.0795481
0.14101
0.141115
0.125922
-0.00621981
-0.102336
-0.156118
-0.138857
-0.160515
-0.164707
-0.163955
-0.610316
-0.592948
-0.536621
-0.466709
-0.38153
-0.295996
-0.207428
-0.119423
-0.0374102
0.0374954
0.0974508
0.0930257
0.0692931
-0.0520578
-0.119744
-0.152576
-0.18201
-0.16239
-0.168677
-0.1648
-0.633242
-0.616577
-0.562091
-0.49309
-0.409189
-0.325726
-0.239103
-0.153751
-0.076131
-0.00544199
0.0537448
0.0475562
0.0137157
-0.0909498
-0.13942
-0.130906
-0.195025
-0.156203
-0.167139
-0.160555
-0.653832
-0.638282
-0.585579
-0.517744
-0.436463
-0.35488
-0.270363
-0.187772
-0.114185
-0.0485068
0.00983911
0.00427166
-0.0360974
-0.112417
-0.1601
-0.127094
-0.181114
-0.147358
-0.15196
-0.149382
-0.670709
-0.656732
-0.606428
-0.540265
-0.462273
-0.382375
-0.300256
-0.220605
-0.150473
-0.0908693
-0.033754
-0.0398348
-0.0791334
-0.118483
-0.152911
-0.144554
-0.146814
-0.145547
-0.143934
-0.14202
-0.682881
-0.670929
-0.623541
-0.559634
-0.48501
-0.407276
-0.327855
-0.251197
-0.184002
-0.130968
-0.0755319
-0.0829584
-0.126008
-0.118823
-0.103994
-0.107853
-0.111461
-0.141047
-0.142726
-0.145816
-0.689107
-0.679466
-0.635979
-0.574816
-0.50327
-0.428337
-0.35189
-0.278249
-0.213514
-0.166516
-0.112301
-0.124048
-0.185819
-0.16081
-0.0626199
-0.0806022
-0.0884409
-0.118944
-0.132778
-0.143424
-0.689036
-0.681478
-0.642023
-0.584111
-0.51597
-0.444312
-0.37104
-0.300227
-0.237901
-0.194625
-0.143599
-0.156268
-0.250626
-0.314657
-0.305501
-0.372373
-0.374065
-0.352177
-0.338161
-0.33017
-0.681733
-0.674459
-0.640028
-0.586441
-0.522119
-0.453988
-0.383914
-0.315415
-0.254399
-0.212042
-0.167872
-0.176987
-0.329431
-0.583649
-0.92449
-1.09719
-1.14276
-1.10072
-1.00717
-0.932432
-0.66292
-0.655048
-0.627621
-0.580275
-0.520812
-0.456558
-0.389539
-0.322458
-0.260342
-0.2152
-0.175726
-0.170147
-0.340359
-0.643778
-1.00833
-1.15196
-1.14934
-1.05217
-0.972985
-0.928456
-0.625148
-0.617894
-0.603498
-0.565803
-0.511944
-0.451535
-0.38734
-0.319982
-0.253323
-0.199633
-0.154355
-0.107447
-0.113889
-0.131621
-0.189091
-0.151052
-0.0602181
0.0184382
0.102317
0.174087
-0.580184
-0.576585
-0.573149
-0.54402
-0.49745
-0.440636
-0.377653
-0.308584
-0.234259
-0.16119
-0.093527
0.0325603
0.21052
0.506695
0.768678
0.99956
1.18715
1.30015
1.35454
1.37775
-0.551144
-0.551683
-0.544527
-0.522807
-0.481805
-0.42669
-0.362164
-0.290226
-0.20644
-0.109559
-0.00586582
0.151598
0.423376
0.82509
1.21924
1.54598
1.76615
1.89179
1.94662
1.96498
-0.51928
-0.520415
-0.51365
-0.504244
-0.468434
-0.413773
-0.345871
-0.269931
-0.180648
-0.0728132
0.0449023
0.174646
0.446507
0.790426
1.12797
1.4194
1.63466
1.76428
1.8234
1.84076
-0.490478
-0.489093
-0.48821
-0.485968
-0.455624
-0.402395
-0.332397
-0.25253
-0.162473
-0.0552173
0.0587184
0.149023
0.375518
0.662455
0.936585
1.17661
1.36851
1.48622
1.53919
1.55327
-0.48041
-0.477728
-0.480953
-0.475608
-0.448167
-0.392439
-0.320622
-0.239868
-0.153356
-0.0569723
0.0488393
0.110434
0.281334
0.516528
0.733264
0.918035
1.06785
1.16162
1.20286
1.21353
-0.473703
-0.472668
-0.478419
-0.474358
-0.445854
-0.383361
-0.309914
-0.230476
-0.149654
-0.0681671
0.0302137
0.0780353
0.195519
0.382802
0.553283
0.690176
0.798222
0.868885
0.90025
0.907421
-0.451703
-0.452342
-0.458284
-0.455493
-0.427298
-0.364243
-0.293867
-0.218903
-0.145058
-0.077659
0.0121047
0.0559321
0.128879
0.271629
0.404026
0.505638
0.583791
0.63526
0.656644
0.662514
-0.395055
-0.396788
-0.403796
-0.400424
-0.374962
-0.323285
-0.264649
-0.199955
-0.134396
-0.0798251
-0.00169048
0.0401817
0.0850377
0.192074
0.291023
0.364656
0.420509
0.458143
0.472848
0.478208
-0.30078
-0.303701
-0.307051
-0.305849
-0.288827
-0.256084
-0.216438
-0.169386
-0.115316
-0.0732117
-0.00991706
0.0282009
0.0574756
0.138883
0.209801
0.260789
0.300845
0.329393
0.34061
0.343593
-0.194435
-0.196349
-0.198193
-0.198499
-0.191181
-0.176162
-0.155417
-0.127314
-0.0901055
-0.0595118
-0.0126803
0.0190876
0.0399616
0.103875
0.153194
0.187353
0.215468
0.23351
0.241805
0.244261
-0.0998696
-0.10099
-0.102881
-0.105389
-0.105681
-0.102984
-0.0961961
-0.0832051
-0.0624315
-0.0422964
-0.0111207
0.0128071
0.0279895
0.0775937
0.111835
0.135098
0.152605
0.162634
0.166458
0.167117
-0.0303982
-0.0312149
-0.032868
-0.036927
-0.0422437
-0.0467228
-0.0483247
-0.0453171
-0.0365296
-0.0259314
-0.00707853
0.0102835
0.022005
0.055435
0.0788684
0.0942266
0.103978
0.108369
0.108869
0.108027
0.0130488
0.0124443
0.0109281
0.00608551
-0.0018116
-0.00981136
-0.0157577
-0.0183654
-0.0164247
-0.0128189
-0.0023226
0.00906756
0.0182302
0.0386533
0.0526876
0.0613999
0.0659631
0.0668144
0.0655367
0.0640797
0.0355615
0.0350919
0.0337526
0.0291192
0.0208445
0.0117857
0.00388234
-0.00172406
-0.00324488
-0.00312408
0.00259412
0.00909417
0.0147736
0.0255653
0.0326946
0.0359732
0.0369992
0.0357188
0.033529
0.0321617
0.0443549
0.0439877
0.0428524
0.0389381
0.0316663
0.0233255
0.0152329
0.0084514
0.00528804
0.00385146
0.00748342
0.01048
0.0129121
0.0176403
0.0200873
0.0205465
0.0198438
0.0180223
0.0159983
0.0145227
0.0451988
0.0449171
0.0440211
0.0410794
0.0355072
0.0288749
0.021852
0.0153204
0.0114517
0.00879745
0.011171
0.0123279
0.0122515
0.0139701
0.0149899
0.0146271
0.0133675
0.0114662
0.00967293
0.00812893
0.0424987
0.0422681
0.0415816
0.0394415
0.0354658
0.0306056
0.0251242
0.0195397
0.0156635
0.012108
0.0129855
0.0141988
0.0134576
0.0142215
0.0138885
0.0131707
0.0115493
0.00961773
0.0080883
0.00669174
0.0386154
0.0384501
0.0379762
0.0364785
0.0336272
0.0299735
0.0257688
0.0211921
0.0178697
0.0140584
0.0141905
0.0146558
0.0142615
0.0156046
0.014332
0.013435
0.0122617
0.0109664
0.00995573
0.00875622
0.0343592
0.0342475
0.0339002
0.0328638
0.0308092
0.0280145
0.0247805
0.0210542
0.0184403
0.0150969
0.0145993
0.0143005
0.0135114
0.0151096
0.015731
0.015238
0.0148222
0.0144345
0.0141898
0.0130707
0.0299737
0.029903
0.0296637
0.0290108
0.027486
0.0254211
0.0229381
0.0199187
0.0179478
0.0150337
0.0143487
0.0133688
0.0129772
0.0143343
0.0162237
0.0178087
0.0178058
0.0174497
0.0176214
0.0168218
0.0254299
0.0253639
0.0251536
0.0247364
0.0237425
0.0223414
0.0205867
0.0183701
0.0168877
0.0143218
0.0139306
0.0127921
0.0127045
0.0145605
0.0168424
0.0192266
0.0213772
0.0223603
0.0228195
0.0222308
0.0211371
0.0210715
0.0209099
0.0206163
0.0199216
0.0191382
0.0178878
0.0162202
0.0153079
0.0132194
0.0130446
0.0117987
0.0120056
0.0164082
0.0201417
0.0228291
0.0266059
0.0292255
0.0300728
0.0290587
0.0172651
0.0171887
0.017065
0.0168896
0.0164788
0.0160308
0.0153425
0.0142213
0.0135439
0.0118767
0.0123676
0.0115576
0.0118095
0.0163837
0.0224807
0.027488
0.030236
0.0322013
0.0333306
0.0323634
0.013784
0.0137015
0.0136258
0.0135159
0.0132644
0.0129827
0.01255
0.011849
0.0115317
0.0104385
0.011424
0.0107251
0.0132214
0.0169162
0.0218014
0.0275095
0.0315862
0.0336813
0.0345091
0.033699
0.010708
0.0105955
0.0105504
0.0104692
0.0102786
0.0101187
0.00975788
0.00903293
0.00900288
0.00833613
0.00977098
0.00858139
0.0111688
0.0155956
0.0207671
0.0264141
0.0314411
0.0339389
0.0346864
0.0337111
0.00766851
0.007566
0.00757886
0.00747927
0.00740905
0.0073601
0.00710976
0.00642377
0.00668695
0.0063227
0.00784731
0.00788144
0.00896781
0.010964
0.0164018
0.0225432
0.0279714
0.0315016
0.0325385
0.0309421
0.00471812
0.00459607
0.00454455
0.00444246
0.00445914
0.00437788
0.00461724
0.00392512
0.00419551
0.00418639
0.00441453
0.00581087
0.00750767
0.00895954
0.0128416
0.0161374
0.0203519
0.0232416
0.0246781
0.0232893
0.00193865
0.00185339
0.00180444
0.00186362
0.00184148
0.00139663
0.0017513
0.00203237
0.0025257
0.0021605
0.00163175
0.00285568
0.00430817
0.00550023
0.00640775
0.00503775
0.00445074
0.00394353
0.00541502
0.00513674
-1.07265
-0.225406
0.0448215
0.32336
0.507859
0.666746
0.797009
0.929502
1.07352
1.15362
-0.0858122
0.324123
0.343018
0.532906
0.659707
0.773265
0.87131
0.958339
0.986347
0.943729
0.295989
0.51184
0.549241
0.686714
0.774536
0.855976
0.923021
0.973261
0.975737
0.989399
0.528564
0.67353
0.70933
0.813032
0.870162
0.92942
0.974734
1.00739
1.01663
1.04018
0.708913
0.811874
0.84169
0.910902
0.955301
0.997313
1.02975
1.05418
1.06411
1.09559
0.853797
0.923515
0.954015
0.997679
1.03404
1.06455
1.08909
1.10989
1.12419
1.1524
0.973969
1.02505
1.05076
1.07907
1.10705
1.13102
1.15116
1.17048
1.18548
1.21192
1.07835
1.11556
1.13679
1.15764
1.17867
1.19823
1.21574
1.23391
1.24882
1.27247
1.17269
1.20192
1.21836
1.23378
1.25007
1.26626
1.28186
1.29882
1.31243
1.33474
1.26121
1.28173
1.2967
1.31001
1.32369
1.33753
1.35103
1.36562
1.37715
1.39678
1.34694
1.36281
1.37671
1.38858
1.40052
1.41215
1.42326
1.43491
1.44256
1.45938
1.43246
1.44511
1.45884
1.47052
1.48107
1.49081
1.49959
1.50784
1.5114
1.52268
1.5213
1.53225
1.54569
1.55505
1.56251
1.56973
1.57694
1.58346
1.58452
1.59191
1.61968
1.62421
1.63234
1.63706
1.64043
1.64492
1.65092
1.65862
1.66248
1.67235
1.73279
1.71952
1.71225
1.70659
1.70391
1.70527
1.71165
1.72402
1.73882
1.76848
1.85457
1.79863
1.76763
1.75044
1.74225
1.74222
1.75101
1.7706
1.8025
1.87173
)
;

boundaryField
{
    wall-4
    {
        type            zeroGradient;
    }
    pressure-outlet-7
    {
        type            fixedValue;
        value           uniform 0;
    }
    velocity-inlet-6
    {
        type            zeroGradient;
    }
    velocity-inlet-5
    {
        type            zeroGradient;
    }
    frontAndBackPlanes
    {
        type            empty;
    }
}


// ************************************************************************* //
