/*--------------------------------*- C++ -*----------------------------------*\
| =========                 |                                                 |
| \\      /  F ield         | OpenFOAM: The Open Source CFD Toolbox           |
|  \\    /   O peration     | Version:  v2012                                 |
|   \\  /    A nd           | Website:  www.openfoam.com                      |
|    \\/     M anipulation  |                                                 |
\*---------------------------------------------------------------------------*/
FoamFile
{
    version     2.0;
    format      ascii;
    class       surfaceScalarField;
    location    "42";
    object      phi;
}
// * * * * * * * * * * * * * * * * * * * * * * * * * * * * * * * * * * * * * //

dimensions      [0 3 -1 0 0 0 0];
oriented        oriented;


internalField   nonuniform List<scalar> 
4262
(
0.10714
0.470848
0.0955653
0.70516
0.0693734
0.858495
0.0473599
1.02078
0.0309921
1.21488
0.0198274
1.44938
0.0124789
1.73321
0.00732525
2.07619
0.00338395
2.48918
-0.000220121
2.9859
-0.00388642
2.98596
-0.00792368
2.48928
-0.01307
2.07618
-0.0202272
1.73302
-0.031167
1.44916
-0.0472768
1.21463
-0.0690681
1.02055
-0.0952973
0.858532
-0.107096
0.705384
0.470893
0.112908
0.357941
0.135362
0.682706
0.120514
0.873343
0.0979992
1.04329
0.0747337
1.23815
0.0529541
1.47116
0.0345186
1.75165
0.0202422
2.09047
0.00891689
2.50051
-0.00126508
2.99608
-0.0113465
2.99604
-0.0222845
2.50022
-0.0361883
2.09009
-0.0545257
1.75136
-0.0763553
1.47099
-0.099947
1.23822
-0.122933
1.04354
-0.136743
0.872343
-0.113474
0.682114
0.357419
0.0920663
0.265874
0.125017
0.649755
0.121165
0.877195
0.10491
1.05955
0.0863064
1.25675
0.0672082
1.49026
0.0483148
1.77054
0.0303836
2.1084
0.0140157
2.51688
-0.00173003
3.01182
-0.0173168
3.01163
-0.0333761
2.51628
-0.0510371
2.10775
-0.0696543
1.76998
-0.0881872
1.48952
-0.105703
1.25573
-0.120253
1.05809
-0.125305
0.877395
-0.092343
0.649152
0.265076
0.0640323
0.201842
0.104938
0.60885
0.106773
0.87536
0.0954496
1.07087
0.0815899
1.27061
0.0668931
1.50496
0.0506735
1.78676
0.0334603
2.12561
0.0157162
2.53462
-0.00308107
3.03062
-0.0216451
3.03019
-0.0388986
2.53353
-0.0554181
2.12427
-0.0706099
1.78517
-0.0843832
1.5033
-0.0979858
1.26934
-0.10961
1.06971
-0.106719
0.874504
-0.0647587
0.607192
0.200317
0.0375593
0.164283
0.0809125
0.565497
0.0912493
0.865023
0.0840882
1.07803
0.0715377
1.28316
0.0597847
1.51671
0.0469062
1.79964
0.0320524
2.14046
0.0152804
2.55139
-0.00371013
3.04961
-0.0224117
3.04889
-0.0386062
2.54973
-0.0526208
2.13828
-0.0649254
1.79747
-0.0762857
1.51466
-0.0882469
1.2813
-0.0946073
1.07607
-0.0829589
0.862856
-0.0383016
0.562535
0.162016
0.0194996
0.144783
0.0572971
0.527699
0.0727434
0.849577
0.0706675
1.08011
0.0618881
1.29194
0.0510468
1.52755
0.0399729
1.81071
0.0275
2.15294
0.0124827
2.56641
-0.00514571
3.06724
-0.0223903
3.06614
-0.0364752
2.56381
-0.0479253
2.14973
-0.057804
1.80735
-0.0676352
1.52449
-0.0754305
1.28909
-0.0764727
1.07712
-0.0596273
0.84601
-0.0202636
0.523171
0.141752
0.0106524
0.134131
0.0424879
0.495864
0.058746
0.833319
0.0591269
1.07973
0.0530088
1.29806
0.0436638
1.5369
0.0334619
1.82091
0.0222915
2.16411
0.00937705
2.57933
-0.00628133
3.0829
-0.0216327
3.08149
-0.0336127
2.57579
-0.0435411
2.15966
-0.0524747
1.81628
-0.0607173
1.53273
-0.0655521
1.29393
-0.0637596
1.07532
-0.045546
0.827797
-0.0115937
0.489219
0.130158
0.00665278
0.127478
0.0331985
0.469318
0.0495828
0.816934
0.0512129
1.0781
0.0463204
1.30295
0.0381203
1.5451
0.0285547
1.83048
0.0177235
2.17494
0.00566036
2.59139
-0.00812882
3.09669
-0.0212115
3.09457
-0.0319656
2.58655
-0.0413078
2.169
-0.0492785
1.82425
-0.055818
1.53927
-0.0590593
1.29717
-0.0555951
1.07186
-0.036785
0.808987
-0.00775633
0.46019
0.122402
0.0048031
0.122675
0.0268668
0.447255
0.0430134
0.800788
0.0453743
1.07573
0.0409364
1.30739
0.0335406
1.55249
0.0246038
1.83942
0.0142433
2.1853
0.0027143
2.60292
-0.00997733
3.10938
-0.0220249
3.10662
-0.032096
2.59662
-0.0404414
2.17735
-0.0473654
1.83118
-0.0529026
1.54481
-0.055315
1.29958
-0.0505302
1.06708
-0.0312789
0.789735
-0.00615491
0.435066
0.116247
0.00379961
0.118875
0.0218172
0.429237
0.0370706
0.785535
0.040072
1.07273
0.0360646
1.3114
0.0290344
1.55952
0.0204984
1.84795
0.0105698
2.19523
-0.000642717
2.61413
-0.012708
3.12144
-0.0239182
3.11783
-0.0330443
2.60574
-0.0406566
2.18496
-0.0467412
1.83726
-0.0512493
1.54931
-0.0526833
1.30102
-0.0466136
1.06101
-0.0273176
0.770439
-0.00549041
0.413239
0.110757
0.00303798
0.115837
0.0175896
0.414685
0.031688
0.771436
0.0348543
1.06957
0.0309996
1.31525
0.0243172
1.56621
0.0163747
1.8559
0.00701974
2.20458
-0.00365846
2.62481
-0.015387
3.13317
-0.0261485
3.12859
-0.0345577
2.61415
-0.0410046
2.19141
-0.0461423
1.8424
-0.0500614
1.55323
-0.0506791
1.30163
-0.0434445
1.05377
-0.0242491
0.751244
-0.00511189
0.394102
0.105645
0.00245266
0.113385
0.0140778
0.40306
0.0269076
0.758606
0.0302114
1.06626
0.0263347
1.31913
0.0194338
1.57311
0.0113416
1.86399
0.00235642
2.21357
-0.00772462
2.63489
-0.0191764
3.14463
-0.0293209
3.13873
-0.0365606
2.62139
-0.0419772
2.19682
-0.0462614
1.84669
-0.0494351
1.55641
-0.049036
1.30123
-0.0407872
1.04552
-0.0219043
0.732361
-0.00488644
0.377084
0.100758
0.00168039
0.111704
0.0102838
0.394457
0.0211313
0.747759
0.0240925
1.0633
0.0204363
1.32279
0.0138599
1.57968
0.00595516
1.87189
-0.00291328
2.22244
-0.0129399
2.64492
-0.0238406
3.15553
-0.0330443
3.14794
-0.0392708
2.62762
-0.0437324
2.20129
-0.0475
1.85045
-0.0495482
1.55846
-0.0484086
1.30009
-0.0389907
1.0361
-0.0201926
0.713563
-0.0047196
0.361611
0.0960389
0.000804436
0.1109
0.0069131
0.388348
0.0160753
0.738597
0.0185689
1.06081
0.0146732
1.32668
0.00797228
1.58638
5.52868e-05
1.87981
-0.00882773
2.23132
-0.0184727
2.65456
-0.0287589
3.16581
-0.0374258
3.15661
-0.0430197
2.63321
-0.0465862
2.20485
-0.0491293
1.853
-0.0499229
1.55925
-0.0478791
1.29805
-0.0372892
1.02551
-0.0187539
0.695028
-0.00453998
0.347397
0.0914989
5.03489e-05
0.110849
0.00367599
0.384722
0.0102827
0.73199
0.0118598
1.05923
0.0078936
1.33065
0.00113902
1.59314
-0.0071631
1.88811
-0.016406
2.24056
-0.0264222
2.66458
-0.0362232
3.17561
-0.0433708
3.16375
-0.0475496
2.63739
-0.0501884
2.20749
-0.0516921
1.8545
-0.0514551
1.55901
-0.0479194
1.29451
-0.0364255
1.01402
-0.0179477
0.67655
-0.00446361
0.333913
0.0870353
-0.000766313
0.111616
0.000305839
0.38365
0.00495805
0.727338
0.00536715
1.05882
0.000499142
1.33552
-0.00695699
1.6006
-0.0157545
1.89691
-0.0254204
2.25023
-0.0348887
2.67405
-0.0431805
3.1839
-0.0491703
3.16974
-0.0525554
2.64078
-0.0541968
2.20913
-0.0549123
1.85522
-0.0540202
1.55812
-0.0491902
1.28968
-0.0363528
1.00118
-0.0177371
0.657934
-0.00458732
0.320763
0.082448
-0.00177235
0.113388
-0.00312926
0.385007
-0.00198802
0.726196
-0.00325114
1.06009
-0.0087011
1.34097
-0.0165784
1.60847
-0.0258362
1.90617
-0.0357234
2.26012
-0.0457158
2.68404
-0.0544055
3.19259
-0.0593644
3.1747
-0.061099
2.64251
-0.0610871
2.20912
-0.0599036
1.85403
-0.0571156
1.55533
-0.0508072
1.28338
-0.0368595
0.987235
-0.0179202
0.638995
-0.00477795
0.307621
0.07767
-0.00310708
0.116495
-0.00684018
0.38874
-0.00887024
0.728226
-0.0118299
1.06304
-0.0184278
1.34756
-0.0274184
1.61746
-0.0373307
1.91608
-0.0477576
2.27054
-0.0576445
2.69393
-0.0654362
3.20039
-0.0690268
3.17829
-0.0692645
2.64275
-0.0678777
2.20773
-0.066006
1.85216
-0.0622099
1.55154
-0.0539627
1.27513
-0.0380284
0.971301
-0.0183781
0.619345
-0.00500351
0.294246
0.0726665
-0.00455598
0.121051
-0.0115533
0.395738
-0.0171676
0.733841
-0.0230152
1.06889
-0.0306435
1.35519
-0.040533
1.62735
-0.0514906
1.92704
-0.0626227
2.28167
-0.0732947
2.7046
-0.0817404
3.20883
-0.0848879
3.18144
-0.0833691
2.64123
-0.0793805
2.20374
-0.0742591
1.84704
-0.0678434
1.54512
-0.0575762
1.26486
-0.0399118
0.953637
-0.0193758
0.598809
-0.00538652
0.280257
0.06728
-0.00603216
0.127083
-0.0168529
0.406558
-0.0268243
0.743812
-0.0351104
1.07718
-0.044611
1.36469
-0.056534
1.63928
-0.0690166
1.93952
-0.0814254
2.29408
-0.0920639
2.71524
-0.0984376
3.21521
-0.0980564
3.18106
-0.0939893
2.63716
-0.0886471
2.1984
-0.0832039
1.8416
-0.0755078
1.53742
-0.0625523
1.25191
-0.0424431
0.933527
-0.0207068
0.577072
-0.00580041
0.265351
0.0614796
-0.00852141
0.135605
-0.0243642
0.422401
-0.0400018
0.75945
-0.0520878
1.08926
-0.0630502
1.37566
-0.0759701
1.6522
-0.0900017
1.95355
-0.103759
2.30784
-0.115169
2.72665
-0.121559
3.2216
-0.12081
3.18031
-0.115207
2.63156
-0.106535
2.18973
-0.0962488
1.83131
-0.0848581
1.52603
-0.069091
1.23614
-0.046591
0.911027
-0.0230647
0.553546
-0.00646603
0.248752
0.0550136
-0.0108794
0.146484
-0.03122
0.442742
-0.0521151
0.780345
-0.068387
1.10554
-0.0828905
1.39016
-0.0992056
1.66851
-0.115586
1.96993
-0.130984
2.32324
-0.142778
2.73844
-0.147273
3.22609
-0.142373
3.17541
-0.132386
2.62157
-0.12145
2.17879
-0.11054
1.8204
-0.0975048
1.513
-0.0783405
1.21698
-0.0523533
0.88504
-0.0260372
0.52723
-0.00716023
0.229875
0.0478533
-0.0155427
0.162027
-0.0430596
0.470259
-0.0703894
0.807675
-0.0919018
1.12705
-0.109995
1.40825
-0.129095
1.68761
-0.148109
1.98895
-0.165063
2.34019
-0.176968
2.75034
-0.180374
3.2295
-0.173953
3.16899
-0.162312
2.60993
-0.148156
2.16464
-0.131962
1.80421
-0.113777
1.49481
-0.0904242
1.19362
-0.0603843
0.855
-0.0301014
0.496947
-0.00809843
0.207872
0.0397549
-0.0196512
0.181678
-0.0558433
0.506451
-0.0923987
0.84423
-0.120563
1.15521
-0.144317
1.43201
-0.168515
1.71181
-0.190139
2.01057
-0.207555
2.35761
-0.217776
2.76056
-0.217064
3.22878
-0.20494
3.15687
-0.187483
2.59247
-0.16905
2.14621
-0.151754
1.78691
-0.131955
1.47501
-0.104534
1.1662
-0.0693693
0.819835
-0.0340284
0.461606
-0.00881281
0.182656
0.0309421
-0.032857
0.214535
-0.0818653
0.555459
-0.127997
0.890362
-0.16337
1.19059
-0.193414
1.46205
-0.220879
1.73927
-0.243683
2.03337
-0.260425
2.37435
-0.267963
2.7681
-0.262608
3.22343
-0.245267
3.13952
-0.224459
2.57167
-0.203466
2.12521
-0.180536
1.76398
-0.154055
1.44853
-0.120688
1.13284
-0.0793378
0.778484
-0.0382536
0.420522
-0.00941455
0.153817
0.0215275
-0.0474419
0.261977
-0.120417
0.628434
-0.181849
0.951795
-0.224858
1.23359
-0.26036
1.49755
-0.289543
1.76846
-0.31063
2.05446
-0.323187
2.38691
-0.324345
2.76926
-0.311689
3.21077
-0.287586
3.11542
-0.260508
2.54459
-0.233157
2.09786
-0.207254
1.73808
-0.178626
1.4199
-0.139237
1.09345
-0.0893619
0.728609
-0.040718
0.371878
-0.0093024
0.122402
0.0122251
-0.0336513
0.295628
-0.0957682
0.690551
-0.152402
1.00843
-0.198896
1.28009
-0.241544
1.5402
-0.27807
1.80498
-0.311816
2.08821
-0.341065
2.41616
-0.361584
2.78978
-0.366877
3.21607
-0.352719
3.10126
-0.328307
2.52018
-0.300914
2.07047
-0.267116
1.70428
-0.222448
1.37524
-0.164012
1.03501
-0.0960871
0.660685
-0.0384152
0.314206
-0.00842801
0.0924145
0.00379713
-0.0122601
0.307888
-0.0461303
0.724421
-0.0869379
1.04924
-0.12578
1.31893
-0.163855
1.57828
-0.197581
1.83871
-0.22823
2.11886
-0.253164
2.44109
-0.267727
2.80434
-0.266715
3.21506
-0.249073
3.08362
-0.22198
2.49308
-0.188171
2.03666
-0.151831
1.66794
-0.113217
1.33662
-0.0706555
0.992449
-0.0318714
0.621901
-0.00882957
0.291164
-0.00146478
0.0850497
0.00233235
0.000908353
0.30698
-0.0228423
0.748172
-0.0519482
1.07834
-0.0820474
1.34903
-0.113077
1.60931
-0.143246
1.86888
-0.170596
2.14621
-0.192507
2.463
-0.205885
2.81772
-0.20557
3.21474
-0.186129
3.06418
-0.156508
2.46346
-0.123811
2.00396
-0.0877001
1.63183
-0.0487669
1.29769
-0.012981
0.956663
0.00829739
0.600622
0.00975406
0.289708
0.00329861
0.0915052
0.00563096
0.00143485
0.305545
-0.0113064
0.760913
-0.0328924
1.09993
-0.0578155
1.37395
-0.0834228
1.63491
-0.108445
1.8939
-0.131808
2.16957
-0.150581
2.48178
-0.160782
2.82792
-0.155768
3.20973
-0.137516
3.04593
-0.112293
2.43824
-0.0791326
1.9708
-0.0432708
1.59597
-0.0126172
1.26703
0.0100176
0.934028
0.0195117
0.591128
0.0149005
0.294319
0.00496409
0.101442
0.010595
0.00448406
0.301061
-0.00387769
0.769275
-0.021842
1.11789
-0.042732
1.39484
-0.0646185
1.6568
-0.0863852
1.91567
-0.106938
2.19012
-0.124029
2.49887
-0.134292
2.83818
-0.133923
3.20936
-0.118563
3.03057
-0.0913207
2.411
-0.0603267
1.93981
-0.0299962
1.56564
0.000478138
1.23656
0.0211638
0.913342
0.025283
0.587009
0.0168296
0.302772
0.00534088
0.11293
0.0159359
0.0054083
0.295653
-0.000334848
0.775018
-0.016264
1.13382
-0.0348296
1.41341
-0.0540027
1.67597
-0.0731056
1.93477
-0.0915061
2.20852
-0.106936
2.5143
-0.115491
2.84674
-0.112213
3.20608
-0.0959418
3.01429
-0.0737013
2.38876
-0.0482497
1.91436
-0.0190518
1.53644
0.00514142
1.21237
0.0206808
0.897803
0.0235036
0.584186
0.0148942
0.311382
0.00469361
0.123131
0.0206295
0.00405702
0.291596
0.000159679
0.778915
-0.0129462
1.14693
-0.0297283
1.43019
-0.0473014
1.69355
-0.06501
1.95248
-0.0820865
2.2256
-0.0966792
2.52889
-0.106397
2.85646
-0.106575
3.20626
-0.0931817
3.0009
-0.0702563
2.36583
-0.0446362
1.88874
-0.0209565
1.51276
0.00215708
1.18925
0.0161547
0.883805
0.0179291
0.582412
0.0113099
0.318001
0.00344611
0.130995
0.0240756
0.0026972
0.288899
-0.000704654
0.782317
-0.0126489
1.15887
-0.0279025
1.44544
-0.0441827
1.70983
-0.0605983
1.96889
-0.0768909
2.24189
-0.0915044
2.5435
-0.101235
2.86619
-0.100165
3.20519
-0.0874853
2.98822
-0.0707392
2.34908
-0.0486336
1.86663
-0.0228213
1.48695
-0.00410548
1.17054
0.0078473
0.871853
0.0112473
0.579012
0.00678809
0.32246
0.00215876
0.135624
0.0262344
0.000207569
0.288691
-0.00293582
0.78546
-0.0134621
1.1694
-0.0270281
1.45901
-0.0423788
1.72518
-0.0583127
1.98483
-0.074399
2.25798
-0.0890342
2.55814
-0.0992436
2.8764
-0.101907
3.20785
-0.0922721
2.97859
-0.0718554
2.32867
-0.049744
1.84452
-0.0311761
1.46838
-0.0127339
1.1521
-0.000864315
0.859983
0.00219138
0.575956
0.00169779
0.322954
0.000743121
0.136579
0.0269775
-0.000430405
0.289121
-0.00511245
0.790142
-0.0148865
1.17917
-0.0275439
1.47167
-0.0421335
1.73977
-0.0574247
2.00012
-0.0731605
2.27371
-0.088044
2.57302
-0.099566
2.88792
-0.103135
3.21142
-0.0918516
2.9673
-0.0753531
2.31217
-0.057217
1.82638
-0.0371229
1.44829
-0.0218773
1.13685
-0.0110762
0.849182
-0.00443671
0.569316
-0.00288875
0.321406
-0.000777053
0.134467
0.0262005
-0.00221775
0.291339
-0.00734784
0.795272
-0.016491
1.18832
-0.0282399
1.48342
-0.0420352
1.75356
-0.0570173
2.0151
-0.0729485
2.28965
-0.0885917
2.58866
-0.101254
2.90058
-0.105489
3.21566
-0.098605
2.96042
-0.0824216
2.29599
-0.063108
1.80707
-0.0465322
1.43171
-0.0300388
1.12036
-0.0178233
0.836966
-0.0107884
0.562281
-0.00503111
0.315649
-0.00136246
0.130798
0.024838
-0.00365303
0.294992
-0.00891565
0.800535
-0.0178344
1.19723
-0.0292421
1.49482
-0.0425451
1.76686
-0.0571408
2.0297
-0.073063
2.30557
-0.089024
2.60463
-0.102437
2.91399
-0.109596
3.22282
-0.10447
2.95529
-0.0899433
2.28146
-0.0721765
1.7893
-0.0525367
1.41207
-0.0375927
1.10541
-0.025089
0.824463
-0.0149264
0.552119
-0.00777542
0.308498
-0.00216428
0.125187
0.0226737
-0.00427647
0.299269
-0.0103294
0.806588
-0.0191373
1.20604
-0.0300075
1.50569
-0.0427708
1.77963
-0.0571415
2.04407
-0.0731776
2.3216
-0.0898258
2.62127
-0.105235
2.9294
-0.114835
3.23242
-0.111026
2.95148
-0.0982658
2.2687
-0.0780443
1.76908
-0.0604381
1.39446
-0.0432629
1.08824
-0.029619
0.810819
-0.019035
0.541535
-0.00857527
0.298038
-0.00230694
0.118919
0.0203668
-0.0043852
0.303654
-0.0109715
0.813174
-0.0198735
1.21494
-0.0305934
1.51641
-0.0430727
1.79211
-0.0571304
2.05813
-0.0731453
2.33762
-0.0902658
2.63839
-0.106374
2.94551
-0.117553
3.24359
-0.118023
2.95195
-0.105742
2.25642
-0.0883929
1.75173
-0.066656
1.37273
-0.0490377
1.07062
-0.0337635
0.795545
-0.0199763
0.527748
-0.00937605
0.287438
-0.00226705
0.11181
0.0180997
-0.00447513
0.308129
-0.0116158
0.820315
-0.0204528
1.22378
-0.0308034
1.52677
-0.0428985
1.8042
-0.0567742
2.072
-0.0728616
2.35371
-0.090531
2.65606
-0.108442
2.96342
-0.123065
3.25822
-0.125225
2.95411
-0.114502
2.24569
-0.0943974
1.73163
-0.0737323
1.35206
-0.0519414
1.04883
-0.0346895
0.778293
-0.0212158
0.514274
-0.00866762
0.274889
-0.00186658
0.105009
0.0162332
-0.004531
0.31266
-0.0117714
0.827555
-0.0205126
1.23252
-0.0307333
1.53699
-0.0426235
1.81609
-0.0562622
2.08564
-0.0723273
2.36977
-0.0903476
2.67408
-0.108831
2.98191
-0.124454
3.27384
-0.130218
2.95988
-0.122194
2.23767
-0.105971
1.7154
-0.0801806
1.32627
-0.0554928
1.02414
-0.0333909
0.756191
-0.0162362
0.497119
-0.00629512
0.264948
-0.0008755
0.0995891
0.0153577
-0.00461672
0.317277
-0.0119802
0.834919
-0.0204939
1.24104
-0.0303553
1.54685
-0.0419066
1.82764
-0.0553662
2.0991
-0.0713843
2.38579
-0.0896685
2.69237
-0.109542
3.00178
-0.128512
3.29281
-0.137655
2.96902
-0.132028
2.23204
-0.112304
1.69568
-0.0874683
1.30144
-0.0563875
0.99306
-0.02931
0.729113
-0.00992514
0.477734
-0.000862702
0.255886
-0.00195962
0.100686
0.013398
-0.0045868
0.321863
-0.0118055
0.842138
-0.0201014
1.24933
-0.0297631
1.55651
-0.0410721
1.83895
-0.0542554
2.11228
-0.0701213
2.40165
-0.0886175
2.71086
-0.108986
3.02215
-0.128392
3.31222
-0.140034
2.98066
-0.138438
2.23045
-0.125175
1.68242
-0.0959942
1.27225
-0.0598265
0.956892
-0.0198931
0.68918
0.0158199
0.442021
0.0316034
0.240102
0.0239524
0.108337
0.0373504
-0.0044997
0.326363
-0.0116648
0.849303
-0.0196938
1.25736
-0.0289554
1.56577
-0.039864
1.84986
-0.0527861
2.1252
-0.0684987
2.41737
-0.0870787
2.72944
-0.10827
3.04334
-0.130476
3.33442
-0.145611
2.9958
-0.148435
2.23327
-0.13306
1.66704
-0.106146
1.24534
-0.0622343
0.91298
-0.0149139
0.641859
0.0329575
0.39415
0.0428887
0.230171
0.018719
0.132507
0.0560695
-0.00430591
0.330669
-0.0112372
0.856234
-0.0189973
1.26512
-0.0279805
1.57475
-0.0386151
1.8605
-0.0512112
2.1378
-0.066687
2.43284
-0.0852678
2.74802
-0.106685
3.06476
-0.129426
3.35716
-0.146556
3.01293
-0.152554
2.23927
-0.147103
1.66159
-0.120336
1.21857
-0.0759154
0.86856
-0.00279344
0.568738
0.0985738
0.292783
0.18367
0.145075
0.179423
0.136754
0.235492
-0.00417532
0.334844
-0.0110732
0.863132
-0.0187709
1.27282
-0.0276833
1.58367
-0.0384353
1.87125
-0.0514917
2.15086
-0.0678564
2.44921
-0.0879186
2.76809
-0.112098
3.08894
-0.140168
3.38523
-0.163581
3.03634
-0.176575
2.25226
-0.171449
1.65647
-0.149702
1.19683
-0.101248
0.820106
-0.0488523
0.516341
-0.0864636
0.330394
-0.360102
0.418714
-0.937144
0.713795
0.898198
-1.59985
-0.00398039
0.338825
-0.0106368
0.869788
-0.0181417
1.28032
-0.0269624
1.59249
-0.0376706
1.88196
-0.0508122
2.164
-0.0675256
2.46592
-0.0884721
2.78903
-0.11431
3.11477
-0.14491
3.41583
-0.173165
3.0646
-0.190893
2.26999
-0.2046
1.67017
-0.19698
1.18921
-0.178885
0.802012
-0.264035
0.601491
-0.692211
0.75857
-1.43164
1.15814
-2.04175
1.3239
1.21792
-2.36147
-0.00377934
0.342604
-0.0102295
0.876239
-0.0175092
1.2876
-0.0260852
1.60106
-0.0366166
1.89249
-0.0498353
2.17722
-0.0669055
2.48299
-0.0886588
2.81079
-0.116406
3.14252
-0.151469
3.4509
-0.186054
3.09918
-0.214983
2.29892
-0.230139
1.68533
-0.228738
1.18781
-0.315923
0.889197
-0.752311
1.03788
-1.53171
1.53797
-2.10366
1.73009
-2.34462
1.56486
1.33287
-2.45957
-0.00357174
0.346176
-0.00964589
0.882313
-0.0166438
1.2946
-0.0250616
1.60948
-0.0354823
1.90291
-0.0487118
2.19045
-0.0660204
2.5003
-0.0885429
2.83331
-0.117837
3.17181
-0.155685
3.48874
-0.196255
3.13975
-0.229488
2.33215
-0.26463
1.72047
-0.351497
1.27467
-0.692724
1.23042
-1.42887
1.77403
-2.02189
2.13098
-2.26291
1.97112
-2.37691
1.67886
1.39797
-2.44201
-0.00331247
0.349488
-0.00905603
0.888056
-0.0157476
1.30129
-0.0238542
1.61759
-0.0340924
1.91315
-0.0473094
2.20366
-0.0648487
2.51784
-0.088024
2.85648
-0.119044
3.20283
-0.161363
3.53106
-0.209144
3.18753
-0.257427
2.38044
-0.305133
1.76818
-0.48436
1.4539
-1.08828
1.83434
-1.78015
2.4659
-2.10501
2.45585
-2.25465
2.12075
-2.33724
1.76145
1.46376
-2.40303
-0.00323165
0.35272
-0.00883007
0.893655
-0.0154831
1.30795
-0.0236894
1.62579
-0.0342225
1.92368
-0.047719
2.21716
-0.0657316
2.53585
-0.0898243
2.88058
-0.122427
3.23544
-0.167497
3.57613
-0.221536
3.24157
-0.271959
2.43086
-0.365669
1.86189
-0.751403
1.83963
-1.48386
2.5668
-1.96121
2.94325
-2.16194
2.65657
-2.26867
2.22748
-2.34578
1.83856
1.52771
-2.40972
-0.0033267
0.356047
-0.00922824
0.899556
-0.0162584
1.31498
-0.0248317
1.63437
-0.0358062
1.93465
-0.0499521
2.23131
-0.0688487
2.55475
-0.0941413
2.90587
-0.128805
3.2701
-0.178579
3.62591
-0.237432
3.30042
-0.303511
2.49694
-0.493941
2.05232
-1.04313
2.38883
-1.67247
3.19614
-1.9519
3.22267
-2.09971
2.80438
-2.21405
2.34183
-2.30776
1.93226
1.58979
-2.36984
-0.00335972
0.359406
-0.00950548
0.905702
-0.0169261
1.3224
-0.0260552
1.6435
-0.0376283
1.94623
-0.0524396
2.24612
-0.0721864
2.5745
-0.0987477
2.93243
-0.135153
3.30651
-0.187207
3.67796
-0.251616
3.36483
-0.341922
2.58724
-0.62191
2.3323
-1.25812
3.02504
-1.75055
3.68857
-1.95867
3.43079
-2.09988
2.94559
-2.22428
2.46623
-2.3357
2.04369
1.64869
-2.39461
-0.00334685
0.362753
-0.00983784
0.912193
-0.0177547
1.33031
-0.0273265
1.65307
-0.0393667
1.95827
-0.0548797
2.26163
-0.075569
2.59518
-0.103355
2.96022
-0.141735
3.34489
-0.197691
3.73392
-0.267155
3.4343
-0.392114
2.7122
-0.773279
2.71347
-1.40447
3.65623
-1.76163
4.04574
-1.9358
3.60496
-2.03891
3.04869
-2.12862
2.55594
-2.19706
2.11213
1.64191
-2.19028
-0.00325501
0.366008
-0.00993457
0.918873
-0.0182762
1.33865
-0.0285012
1.66329
-0.0412687
1.97103
-0.0575054
2.27787
-0.0790681
2.61675
-0.108128
2.98928
-0.148157
3.38492
-0.204979
3.79074
-0.284872
3.51419
-0.456484
2.88381
-0.904124
3.16111
-1.45859
4.21069
-1.72255
4.3097
-1.87654
3.75896
-1.97089
3.14304
-1.9738
2.55885
-1.90697
2.0453
1.61029
-1.87535
-0.00301965
0.369028
-0.0100508
0.925904
-0.0188985
1.3475
-0.0294903
1.67388
-0.042579
1.98412
-0.0592559
2.29454
-0.0812719
2.63876
-0.110649
3.01865
-0.151109
3.42538
-0.208096
3.84772
-0.294734
3.60083
-0.49743
3.08651
-0.980562
3.64424
-1.42504
4.65518
-1.5939
4.47855
-1.66239
3.82745
-1.668
3.14864
-1.52163
2.41248
-1.02244
1.54611
0.587846
-0.00261385
0.371642
-0.00974323
0.933033
-0.0190083
1.35677
-0.0304424
1.68532
-0.0446988
1.99838
-0.0626909
2.31254
-0.0864823
2.66255
-0.118521
3.05069
-0.162772
3.46963
-0.225303
3.91026
-0.329188
3.70472
-0.58337
3.34069
-1.11764
4.17851
-1.47938
5.01692
-1.57961
4.57879
-1.57835
3.82618
-1.47668
3.04698
-1.23813
2.17393
-0.637474
0.945452
-0.0496274
-0.00210026
0.373742
-0.00933357
0.940266
-0.0191434
1.36658
-0.0311619
1.69734
-0.0461445
2.01336
-0.0654116
2.3318
-0.0910873
2.68823
-0.125701
3.08531
-0.174307
3.51823
-0.243935
3.97988
-0.366359
3.82714
-0.675919
3.65025
-1.2313
4.73389
-1.49763
5.28324
-1.55841
4.63957
-1.5386
3.80637
-1.33723
2.84561
-0.789587
1.62629
-0.111856
0.26772
-0.161483
-0.00148169
0.375224
-0.00829399
0.947079
-0.0182542
1.37654
-0.0310951
1.71018
-0.0472411
2.02951
-0.0677966
2.35236
-0.0952137
2.71565
-0.132557
3.12265
-0.18448
3.57016
-0.261498
4.0569
-0.409349
3.97499
-0.777781
4.01868
-1.31304
5.26915
-1.49271
5.46292
-1.52354
4.6704
-1.43741
3.72024
-1.10825
2.51645
-0.319388
0.837424
0.0270018
-0.0786698
-0.134481
-0.000589737
0.375813
-0.00676923
0.953258
-0.017144
1.38691
-0.0304941
1.72353
-0.0471195
2.04613
-0.068808
2.37405
-0.0980106
2.74485
-0.137616
3.16225
-0.192642
3.62518
-0.278615
4.14287
-0.451328
4.1477
-0.879902
4.44726
-1.35313
5.74238
-1.47287
5.58265
-1.47816
4.67569
-1.26143
3.50351
-0.697942
1.95297
-0.0646204
0.204102
0.0317573
-0.175047
-0.102724
0.000877213
0.374936
-0.00399369
0.958129
-0.0142489
1.39717
-0.0283695
1.73765
-0.0459412
2.0637
-0.0687805
2.39689
-0.0994023
2.77547
-0.141165
3.20402
-0.198701
3.68272
-0.293288
4.23746
-0.493651
4.34807
-0.972177
4.92578
-1.35248
6.12269
-1.41912
5.64929
-1.3768
4.63337
-1.08797
3.21468
-0.334195
1.19919
0.000279082
-0.130372
0.0132169
-0.187985
-0.0895069
0.00308249
0.371854
0.00013883
0.961073
-0.0107671
1.40807
-0.0251559
1.75204
-0.0426399
2.08119
-0.066299
2.42055
-0.0982118
2.80738
-0.141499
3.2473
-0.201859
3.74308
-0.304106
4.33971
-0.525608
4.56957
-1.02851
5.42868
-1.30947
6.40365
-1.35132
5.69114
-1.2216
4.50366
-0.789804
2.78288
-0.0804497
0.489835
0.0472095
-0.258031
0.0264616
-0.167237
-0.0630454
0.00525836
0.366595
0.00389826
0.962433
-0.00521575
1.41719
-0.019122
1.76594
-0.0371764
2.09924
-0.0615912
2.44496
-0.0941759
2.83997
-0.138668
3.2918
-0.200715
3.80513
-0.310071
4.44906
-0.561888
4.82139
-1.05005
5.91684
-1.24576
6.59936
-1.26085
5.70623
-1.04907
4.29188
-0.471697
2.20551
-0.00620787
0.0243463
0.00611991
-0.270359
0.0128588
-0.173976
-0.0501866
0.00833226
0.358263
0.00958093
0.961184
0.00219713
1.42457
-0.0108774
1.77902
-0.0284997
2.11687
-0.0528412
2.4693
-0.0855703
2.8727
-0.129954
3.33618
-0.193338
3.86851
-0.308327
4.56405
-0.574923
5.08798
-1.02169
6.36361
-1.14824
6.72591
-1.13715
5.69513
-0.889975
4.0447
-0.278329
1.59386
-0.0641201
-0.189862
-0.0369908
-0.297488
-0.0109974
-0.19997
-0.0611839
0.0121731
0.34609
0.0176871
0.95567
0.013269
1.42899
0.00237779
1.78991
-0.0161334
2.13538
-0.0399239
2.49309
-0.0717054
2.90448
-0.115493
3.37997
-0.178298
3.93132
-0.295209
4.68096
-0.570369
5.36314
-0.954623
6.74786
-1.02695
6.79824
-0.967758
5.63594
-0.703612
3.78056
-0.11971
1.00996
-0.0495563
-0.260016
-0.0359765
-0.311068
-0.0134408
-0.222505
-0.0746247
0.0178725
0.328218
0.0289706
0.944572
0.0272446
1.43072
0.017149
1.80001
0.000837391
2.15169
-0.0203169
2.51425
-0.0502089
2.93437
-0.0917555
3.42151
-0.152193
3.99175
-0.268364
4.79714
-0.523714
5.61849
-0.833938
7.05809
-0.87368
6.83798
-0.781193
5.54346
-0.468788
3.46815
0.00591814
0.535255
0.0300012
-0.284099
0.0167849
-0.297852
0.00390168
-0.209622
-0.0707231
0.0245283
0.303689
0.0432667
0.925834
0.0470155
1.42697
0.0400414
1.80698
0.0272145
2.16452
0.00736028
2.5341
-0.0201626
2.96189
-0.057813
3.45916
-0.113525
4.04747
-0.219651
4.90326
-0.441141
5.83998
-0.66644
7.28339
-0.71196
6.8835
-0.603165
5.43466
-0.269241
3.13423
0.0414641
0.22455
0.0429261
-0.285561
0.0453927
-0.300318
0.0250226
-0.189252
-0.0457005
0.0335865
0.270103
0.0623571
0.897063
0.0723238
1.417
0.0696321
1.80967
0.060703
2.17344
0.0444809
2.55032
0.0215192
2.98486
-0.0113122
3.49199
-0.0590572
4.09521
-0.146565
4.99077
-0.311647
6.00506
-0.455529
7.42727
-0.501997
6.92997
-0.434329
5.36699
-0.135949
2.83585
-0.00730863
0.0959094
-0.00476434
-0.288106
0.0242036
-0.329286
0.0380539
-0.203102
-0.0076465
0.0432267
0.226876
0.085257
0.855033
0.105447
1.39681
0.109682
1.80544
0.105407
2.17772
0.0934336
2.5623
0.0767384
3.00155
0.0526379
3.5161
0.0129641
4.13489
-0.0394968
5.04323
-0.146188
6.11175
-0.226341
7.50742
-0.258485
6.96211
-0.308909
5.41742
-0.238029
2.76497
-0.428144
0.286025
-0.413186
-0.303064
-0.255414
-0.487058
-0.0656035
-0.392913
-0.07325
0.0542737
0.172602
0.113798
0.795508
0.147503
1.3631
0.159236
1.7937
0.161228
2.17573
0.155301
2.56822
0.146583
3.01027
0.13311
3.52957
0.115151
4.15285
0.0897067
5.06867
0.0916138
6.10985
0.0858396
7.5132
0.0059188
7.04203
-0.165376
5.58871
-0.424999
3.02459
-0.772539
0.633565
-0.761129
-0.314474
-0.564398
-0.683789
-0.257098
-0.700213
-0.330348
0.0580344
0.114568
0.143225
0.710317
0.196889
1.30944
0.222519
1.76807
0.233847
2.1644
0.235222
2.56685
0.235232
3.01026
0.234729
3.53007
0.238429
4.14915
0.251693
5.05541
0.358881
6.00266
0.485883
7.3862
0.488826
7.03909
0.419035
5.6585
0.0494387
3.39419
-0.445253
1.12826
-0.716498
-0.0432293
-0.657824
-0.742463
-0.353761
-1.00428
-0.68411
0.0509586
0.0636093
0.172203
0.589073
0.257707
1.22394
0.298434
1.72735
0.319333
2.1435
0.33077
2.55541
0.340515
3.00052
0.355956
3.51463
0.386964
4.11814
0.449645
4.99273
0.701779
5.75052
1.0977
6.99028
1.4501
6.68668
1.72581
5.3828
1.44602
3.67397
0.803799
1.77048
0.267918
0.492651
-0.0439683
-0.430576
-0.146984
-0.90126
-0.831094
0.0368224
0.0267869
0.202464
0.423432
0.319647
1.10675
0.39
1.65699
0.427299
2.1062
0.451214
2.5315
0.468545
2.98318
0.496942
3.48623
0.553395
4.06168
0.680401
4.86572
1.06016
5.37077
1.74632
6.30412
2.14284
6.29017
2.38904
5.1366
2.261
3.80201
1.75025
2.28123
1.25542
0.987476
0.723259
0.101587
0.262895
-0.440896
-0.568199
0.0310965
-0.0043096
0.223391
0.231138
0.401786
0.928358
0.498202
1.56058
0.547638
2.05677
0.584498
2.49464
0.61271
2.95497
0.654756
3.44419
0.735121
3.98132
0.895004
4.70584
1.30349
4.96228
2.07522
5.53239
2.48293
5.88246
2.69428
4.92524
2.64809
3.8482
2.18323
2.74609
1.57188
1.59883
0.959144
0.714324
0.427684
0.0905636
-0.140514
0.0280728
-0.0323824
0.183409
0.0758016
0.454156
0.657611
0.618865
1.39587
0.696104
1.97953
0.742157
2.44858
0.779598
2.91753
0.818622
3.40516
0.887792
3.91215
1.02765
4.56598
1.29934
4.69059
1.98411
4.84762
2.35302
5.51355
2.48099
4.79727
2.41731
3.91189
2.11259
3.05081
1.57536
2.13605
0.999279
1.2904
0.411087
0.678755
0.270573
0.013802
-0.0461845
0.100812
-0.0112081
0.40394
0.354482
0.615115
1.18469
0.715281
1.87936
0.746354
2.41751
0.75727
2.90662
0.748674
3.41376
0.741739
3.91908
0.770207
4.53751
0.839329
4.62147
1.118
4.56895
1.35859
5.27296
1.35899
4.79687
1.28174
3.98914
1.12182
3.21074
0.841743
2.41613
0.524862
1.60729
0.217471
0.986147
0.488043
0.00176362
-0.0479481
0.0464265
-0.0558709
0.248961
0.151948
0.457468
0.976187
0.557971
1.77886
0.59331
2.38217
0.610356
2.88957
0.607073
3.41704
0.597742
3.92842
0.596988
4.53827
0.62746
4.591
0.793425
4.40298
0.996941
5.06944
0.99618
4.79763
0.921967
4.06335
0.79733
3.33537
0.60464
2.60882
0.365151
1.84677
0.141689
1.20961
0.629732
0.0209096
-0.0688577
0.0652828
-0.100244
0.154667
0.0625642
0.312991
0.817863
0.404787
1.68706
0.443333
2.34362
0.460307
2.8726
0.467055
3.41029
0.467124
3.92835
0.462866
4.54253
0.467213
4.58665
0.564518
4.30568
0.703781
4.93018
0.700891
4.80052
0.628379
4.13587
0.527063
3.43669
0.391927
2.74395
0.228364
2.01034
0.0775539
1.36042
0.707286
0.0349027
-0.10376
0.0760029
-0.141344
0.0896928
0.0488743
0.164029
0.743526
0.235765
1.61533
0.283041
2.29635
0.310217
2.84542
0.330896
3.38961
0.343707
3.91554
0.345421
4.54081
0.339213
4.59286
0.387822
4.25707
0.478947
4.83905
0.475903
4.80357
0.415367
4.1964
0.337115
3.51494
0.239368
2.8417
0.124377
2.12533
0.0257817
1.45901
0.733067
0.0299949
-0.133755
0.0470962
-0.158446
0.00728212
0.0886883
0.0133258
0.737483
0.0632857
1.56537
0.116275
2.24336
0.16219
2.7995
0.198619