/*--------------------------------*- C++ -*----------------------------------*\
| =========                 |                                                 |
| \\      /  F ield         | OpenFOAM: The Open Source CFD Toolbox           |
|  \\    /   O peration     | Version:  v2012                                 |
|   \\  /    A nd           | Website:  www.openfoam.com                      |
|    \\/     M anipulation  |                                                 |
\*---------------------------------------------------------------------------*/
FoamFile
{
    version     2.0;
    format      ascii;
    class       volScalarField;
    location    "70";
    object      p;
}
// * * * * * * * * * * * * * * * * * * * * * * * * * * * * * * * * * * * * * //

dimensions      [0 2 -2 0 0 0 0];


internalField   nonuniform List<scalar> 
2200
(
0.772287
0.750789
0.734886
0.719224
0.704621
0.692114
0.681777
0.673694
0.668014
0.665114
0.665655
0.669481
0.675862
0.684447
0.695145
0.70793
0.722732
0.738667
0.754714
0.776213
0.704705
0.701448
0.698526
0.694414
0.688962
0.6825
0.675901
0.669976
0.665511
0.663189
0.663711
0.667066
0.67227
0.678749
0.685752
0.692517
0.698186
0.702286
0.705139
0.708502
0.664764
0.664986
0.667053
0.668406
0.668805
0.667964
0.666001
0.663352
0.660848
0.659409
0.660011
0.662529
0.665851
0.669108
0.671458
0.672468
0.672202
0.671203
0.669561
0.669313
0.642258
0.643711
0.646309
0.648765
0.65122
0.653257
0.654433
0.654693
0.654362
0.65413
0.654814
0.656256
0.657505
0.657929
0.657269
0.655617
0.653474
0.6513
0.648696
0.647292
0.62786
0.629832
0.632656
0.635505
0.63838
0.641231
0.643717
0.645616
0.646886
0.647727
0.648544
0.649078
0.648896
0.64784
0.646011
0.64366
0.641127
0.638413
0.635628
0.633705
0.620473
0.622071
0.624283
0.626824
0.629507
0.632197
0.634817
0.637274
0.639347
0.640934
0.641889
0.641997
0.641223
0.639758
0.637902
0.635791
0.633482
0.631146
0.629051
0.627476
0.616993
0.618015
0.619292
0.621173
0.623339
0.625534
0.627769
0.630113
0.6324
0.63433
0.635458
0.635563
0.634863
0.633716
0.63237
0.630848
0.629175
0.627614
0.626508
0.625491
0.614261
0.614929
0.615569
0.616887
0.618524
0.620243
0.622041
0.62403
0.62618
0.62824
0.629613
0.630033
0.629804
0.629252
0.628528
0.627627
0.626606
0.625703
0.625267
0.624588
0.61093
0.611374
0.61178
0.612794
0.614083
0.615505
0.617055
0.618795
0.620752
0.622845
0.6245
0.625415
0.62578
0.625812
0.625594
0.625174
0.624632
0.624128
0.623953
0.623487
0.606777
0.607072
0.607437
0.608323
0.609461
0.610771
0.612262
0.613947
0.61586
0.618039
0.620074
0.621544
0.622448
0.622935
0.623104
0.623036
0.622793
0.6225
0.622386
0.62206
0.601943
0.602144
0.602522
0.603369
0.604492
0.605844
0.607428
0.609254
0.611345
0.613753
0.616228
0.618238
0.61961
0.620448
0.620893
0.621067
0.621012
0.620877
0.620788
0.620547
0.596609
0.596753
0.597132
0.597961
0.599131
0.600605
0.602377
0.604454
0.60688
0.609726
0.612761
0.615306
0.617097
0.618273
0.618971
0.619332
0.619493
0.619508
0.619454
0.619259
0.590815
0.590922
0.591305
0.592143
0.593403
0.595047
0.597073
0.599504
0.602407
0.605863
0.609535
0.612661
0.614912
0.616436
0.617435
0.618061
0.618441
0.618596
0.618587
0.618413
0.584619
0.584683
0.585076
0.585951
0.58732
0.58915
0.591444
0.594271
0.597738
0.601918
0.606418
0.610254
0.613046
0.615029
0.61643
0.61738
0.61801
0.61832
0.618351
0.618183
0.577848
0.577885
0.578312
0.579229
0.580747
0.582791
0.585398
0.588696
0.592854
0.59793
0.603382
0.608065
0.611549
0.614115
0.616001
0.617345
0.618248
0.61872
0.618802
0.618634
0.570425
0.570382
0.570821
0.571856
0.573606
0.575938
0.578941
0.582803
0.587741
0.593883
0.600482
0.60616
0.610541
0.613809
0.616279
0.618065
0.619279
0.619921
0.620052
0.619876
0.562078
0.562081
0.562515
0.563633
0.565629
0.568283
0.571759
0.576287
0.582131
0.589459
0.597559
0.604541
0.609942
0.614102
0.617249
0.619569
0.62114
0.621958
0.622146
0.621956
0.552587
0.552603
0.553059
0.554328
0.556627
0.559719
0.563833
0.569222
0.576212
0.585026
0.594718
0.603295
0.609956
0.615111
0.619041
0.621942
0.623919
0.624933
0.625173
0.624964
0.5416
0.541573
0.542149
0.543642
0.546285
0.549958
0.554895
0.561369
0.569767
0.580436
0.592136
0.602479
0.610581
0.616863
0.621666
0.625276
0.627714
0.628916
0.6292
0.628964
0.528475
0.528405
0.529097
0.530974
0.534198
0.538665
0.544684
0.552593
0.562822
0.575683
0.589802
0.602144
0.611874
0.619437
0.625266
0.629623
0.632546
0.633949
0.634265
0.634
0.512964
0.512852
0.513629
0.515866
0.519864
0.525452
0.532932
0.542717
0.555291
0.570889
0.587728
0.602447
0.613956
0.622921
0.629848
0.635061
0.638507
0.640073
0.640398
0.640099
0.494137
0.494063
0.495084
0.497859
0.502802
0.509813
0.519257
0.531548
0.547113
0.566043
0.586015
0.603284
0.616727
0.627262
0.635438
0.641575
0.645523
0.647249
0.647548
0.647218
0.470832
0.470682
0.472021
0.475667
0.482135
0.491315
0.503525
0.519159
0.538438
0.561247
0.58485
0.604923
0.620523
0.632635
0.642061
0.649111
0.653516
0.655336
0.655566
0.655216
0.440866
0.440893
0.443013
0.448119
0.456963
0.469368
0.485464
0.50539
0.529139
0.556453
0.584073
0.607227
0.625029
0.638872
0.649646
0.657571
0.66231
0.664156
0.664278
0.663914
0.401407
0.401659
0.405229
0.413271
0.426113
0.443444
0.464868
0.490253
0.519413
0.551928
0.583947
0.610264
0.630375
0.645967
0.658014
0.666708
0.671626
0.673366
0.67336
0.673007
0.348801
0.349278
0.356422
0.369789
0.389233
0.413886
0.442385
0.474484
0.509922
0.548118
0.584692
0.614266
0.636645
0.653897
0.667163
0.67635
0.681049
0.682364
0.682219
0.681933
0.280136
0.28287
0.298201
0.320064
0.348516
0.382107
0.418835
0.458407
0.50068
0.545167
0.586821
0.620072
0.645137
0.664452
0.678919
0.688496
0.692803
0.693518
0.693409
0.693194
0.202001
0.211809
0.23741
0.268969
0.30763
0.350454
0.395449
0.442736
0.492284
0.543501
0.590736
0.628149
0.656312
0.677606
0.693415
0.703052
0.706743
0.706911
0.706925
0.706791
0.132281
0.146948
0.179233
0.219955
0.268358
0.32006
0.373153
0.428237
0.485047
0.542782
0.595414
0.636791
0.667575
0.690713
0.707398
0.71677
0.719998
0.719907
0.720056
0.719978
0.0792139
0.0929378
0.129784
0.17658
0.232505
0.291906
0.352521
0.414865
0.478508
0.54264
0.600606
0.645739
0.67886
0.703552
0.721039
0.730696
0.733351
0.733547
0.7338
0.733769
0.0352819
0.0481951
0.0890869
0.139893
0.201328
0.26673
0.333774
0.402609
0.472603
0.542832
0.605795
0.654452
0.690134
0.716492
0.73499
0.744928
0.74792
0.748452
0.748501
0.748583
-0.00179344
0.0110974
0.0546498
0.108419
0.174208
0.244451
0.317004
0.391574
0.46729
0.542999
0.610663
0.662894
0.701117
0.729077
0.748808
0.759447
0.762892
0.763413
0.763412
0.763473
-0.0342591
-0.0211034
0.0246087
0.0809845
0.150449
0.224752
0.301997
0.381493
0.462268
0.543063
0.61548
0.67121
0.71161
0.741294
0.762256
0.773182
0.776914
0.777443
0.777484
0.777533
-0.0627985
-0.0497886
-0.00231041
0.0565
0.129152
0.206936
0.288227
0.372027
0.45746
0.543299
0.620364
0.679184
0.721613
0.752582
0.774454
0.785869
0.789806
0.790432
0.790469
0.790507
-0.0888709
-0.0758228
-0.0270336
0.0341246
0.109612
0.190489
0.275365
0.363068
0.452931
0.543555
0.624689
0.686354
0.730825
0.763102
0.785375
0.797219
0.801488
0.802181
0.802218
0.802236
-0.112783
-0.0997047
-0.0500742
0.0132996
0.0912975
0.174955
0.263082
0.354399
0.448273
0.543007
0.628028
0.692823
0.73927
0.77242
0.795054
0.807477
0.811828
0.812621
0.812645
0.812642
-0.135363
-0.121925
-0.0716886
-0.00633947
0.073843
0.160049
0.251138
0.345634
0.442964
0.541566
0.630845
0.698675
0.746813
0.7811
0.803906
0.816522
0.820972
0.821815
0.821826
0.821804
-0.156642
-0.142917
-0.0921132
-0.0250435
0.0570207
0.145501
0.239169
0.336431
0.436962
0.539469
0.632924
0.703889
0.753993
0.789136
0.812137
0.824654
0.829004
0.829874
0.829865
0.829823
-0.176726
-0.163037
-0.111513
-0.0430044
0.0406333
0.131093
0.22703
0.326806
0.430367
0.536603
0.634098
0.708535
0.760853
0.797066
0.819991
0.831882
0.836142
0.836925
0.836914
0.836848
-0.195957
-0.182138
-0.130067
-0.0603855
0.0245767
0.11675
0.214693
0.316802
0.423197
0.532915
0.634457
0.712602
0.767683
0.804927
0.827574
0.838859
0.842564
0.843088
0.843065
0.842987
-0.214775
-0.200463
-0.147951
-0.0772802
0.00880584
0.102471
0.202227
0.306491
0.41547
0.528408
0.633972
0.716114
0.774342
0.81331
0.835618
0.845622
0.848311
0.848428
0.848399
0.848402
-0.23316
-0.218141
-0.165294
-0.0937457
-0.00666378
0.0883181
0.189674
0.295855
0.407153
0.523038
0.632516
0.719016
0.780992
0.822269
0.84458
0.853113
0.853705
0.85326
0.85291
0.852782
-0.251132
-0.235406
-0.182166
-0.109775
-0.0218043
0.0743205
0.177058
0.284904
0.398261
0.516842
0.630031
0.721114
0.787384
0.832103
0.855569
0.862051
0.860155
0.858591
0.858555
0.859597
-0.268479
-0.25222
-0.198557
-0.12536
-0.0365909
0.0605137
0.164399
0.273651
0.388832
0.509837
0.626407
0.722149
0.793454
0.842618
0.868782
0.874614
0.869723
0.862759
0.858179
0.85748
-0.285253
-0.268591
-0.21444
-0.140469
-0.0510006
0.0469151
0.151734
0.262175
0.378968
0.502095
0.621623
0.721848
0.798487
0.853592
0.884542
0.891592
0.886224
0.876164
0.876865
0.881044
-0.301371
-0.284377
-0.229749
-0.155087
-0.0650148
0.033568
0.139136
0.250569
0.368749
0.493689
0.615692
0.719974
0.802239
0.864032
0.901784
0.91336
0.906722
0.877553
0.840809
0.809113
-0.316848
-0.299618
-0.244524
-0.169279
-0.0787311
0.0203541
0.126484
0.238698
0.357995
0.484422
0.608412
0.716095
0.803536
0.873077
0.920066
0.939155
0.945627
0.918163
0.935813
0.998665
-0.331605
-0.314281
-0.258832
-0.183196
-0.092336
0.00706269
0.113528
0.226232
0.346246
0.473684
0.599151
0.709371
0.801377
0.877722
0.931127
0.955265
0.953161
0.922983
0.877838
0.895818
-0.345653
-0.328399
-0.272645
-0.196772
-0.105737
-0.00620202
0.100387
0.21329
0.333603
0.461537
0.587872
0.699455
0.793421
0.873324
0.928585
0.953566
0.93054
0.869689
0.802896
0.789636
-0.358955
-0.341904
-0.285938
-0.21001
-0.118936
-0.0194324
0.0870737
0.19988
0.320071
0.447939
0.574367
0.685939
0.779287
0.856052
0.90642
0.90525
0.863895
0.781271
0.703936
0.677385
-0.371568
-0.354851
-0.298748
-0.222913
-0.131936
-0.0326402
0.0735766
0.186002
0.305681
0.432913
0.558558
0.668543
0.757322
0.822865
0.848553
0.829734
0.763198
0.657553
0.567603
0.54266
-0.38391
-0.367565
-0.311422
-0.235843
-0.145092
-0.0461362
0.0596263
0.171437
0.290259
0.416283
0.540175
0.646653
0.728323
0.777459
0.769696
0.730021
0.611449
0.484971
0.374855
0.345174
-0.396839
-0.380899
-0.324676
-0.249386
-0.158935
-0.0603831
0.0448263
0.155861
0.27356
0.397856
0.518955
0.619792
0.694185
0.717533
0.682641
0.588488
0.427913
0.271811
0.139641
0.109784
-0.410842
-0.395108
-0.33875
-0.263782
-0.173658
-0.0755113
0.0290964
0.13924
0.255586
0.377643
0.494839
0.588879
0.652527
0.646317
0.59287
0.437755
0.234891
0.019844
-0.161994
-0.212539
-0.42606
-0.410447
-0.353788
-0.279037
-0.189215
-0.0914838
0.0124694
0.121608
0.236387
0.355729
0.467832
0.555282
0.603552
0.565517
0.475862
0.284831
0.0521429
-0.237883
-0.559038
-0.709208
-0.442541
-0.426827
-0.369816
-0.295275
-0.205711
-0.108382
-0.00512769
0.102903
0.215913
0.332139
0.438151
0.518821
0.548688
0.480221
0.3405
0.133571
-0.100623
-0.444659
-1.02917
-1.59967
-0.460403
-0.444552
-0.387018
-0.312525
-0.223124
-0.126182
-0.0236556
0.0831932
0.194318
0.307238
0.406942
0.479474
0.489641
0.405033
0.210674
-0.0234265
-0.226112
-0.460208
-1.01091
-2.50984
-0.479638
-0.463453
-0.405371
-0.330959
-0.241673
-0.145111
-0.0433669
0.0622065
0.171269
0.280659
0.374084
0.436758
0.425513
0.345862
0.117079
-0.120724
-0.268938
-0.306509
-0.295506
-0.679105
-0.500208
-0.483972
-0.425199
-0.350819
-0.261683
-0.165627
-0.0648626
0.0391725
0.145832
0.251113
0.338643
0.390503
0.362773
0.294602
0.0670844
-0.135068
-0.246157
-0.25464
-0.202047
-0.242012
-0.521975
-0.505634
-0.446314
-0.372233
-0.283339
-0.187924
-0.0883473
0.0139069
0.117785
0.218387
0.300711
0.34218
0.307759
0.239851
0.0344442
-0.125862
-0.208471
-0.216817
-0.264505
-0.268558
-0.544907
-0.528736
-0.468854
-0.395132
-0.306523
-0.211957
-0.113826
-0.0136531
0.0871039
0.182887
0.260177
0.291634
0.259727
0.177764
0.00610188
-0.11656
-0.187406
-0.164376
-0.18484
-0.186509
-0.568707
-0.552265
-0.492437
-0.419495
-0.331236
-0.237757
-0.1413
-0.0434121
0.0539234
0.14494
0.21728
0.237729
0.218154
0.109922
-0.0294649
-0.112158
-0.151639
-0.1997
-0.173833
-0.182497
-0.593345
-0.576495
-0.517173
-0.44506
-0.357088
-0.265059
-0.170506
-0.0751477
0.0183972
0.104936
0.172932
0.182784
0.174777
0.0484921
-0.0666759
-0.130484
-0.108448
-0.168066
-0.148571
-0.153622
-0.617599
-0.600548
-0.542706
-0.471535
-0.383946
-0.29378
-0.201281
-0.108561
-0.0192457
0.0632218
0.128371
0.13052
0.122374
-0.00256252
-0.0936837
-0.145097
-0.132395
-0.148222
-0.153387
-0.151687
-0.641298
-0.624379
-0.568565
-0.498171
-0.411269
-0.323401
-0.233088
-0.143216
-0.0584811
0.0202032
0.0838625
0.0823154
0.0652393
-0.0451576
-0.107196
-0.139127
-0.177117
-0.148792
-0.154422
-0.148835
-0.663224
-0.647031
-0.593261
-0.524103
-0.438983
-0.35358
-0.265583
-0.178646
-0.0984955
-0.0238406
0.039349
0.038561
0.00907682
-0.079729
-0.119847
-0.11368
-0.186217
-0.128876
-0.143992
-0.1361
-0.682911
-0.667844
-0.616189
-0.548355
-0.466386
-0.383339
-0.297928
-0.214191
-0.138334
-0.0684306
-0.00568897
-0.00187994
-0.0357875
-0.0983097
-0.127171
-0.0874075
-0.133185
-0.114942
-0.121021
-0.11772
-0.6986
-0.685145
-0.636156
-0.570537
-0.49253
-0.411963
-0.329534
-0.249198
-0.177079
-0.112753
-0.0509862
-0.0398087
-0.0672912
-0.0999126
-0.115733
-0.0927456
-0.106577
-0.110624
-0.111946
-0.112082
-0.709602
-0.698288
-0.652706
-0.589745
-0.515686
-0.438287
-0.359323
-0.282715
-0.213942
-0.15567
-0.095394
-0.0749766
-0.089573
-0.0960022
-0.106076
-0.115683
-0.109146
-0.113392
-0.111976
-0.11312
-0.714437
-0.705503
-0.664109
-0.60477
-0.534908
-0.461394
-0.386361
-0.313712
-0.248132
-0.195443
-0.136383
-0.108988
-0.11694
-0.095035
-0.107084
-0.137669
-0.118759
-0.123504
-0.117551
-0.118615
-0.713229
-0.706384
-0.669398
-0.614102
-0.548685
-0.47975
-0.409355
-0.341022
-0.27895
-0.230333
-0.172801
-0.14122
-0.139148
-0.103934
-0.11014
-0.142443
-0.117204
-0.12989
-0.125289
-0.127102
-0.705028
-0.697769
-0.665847
-0.616346
-0.556472
-0.492654
-0.427107
-0.363034
-0.304532
-0.258649
-0.203658
-0.169352
-0.152771
-0.112368
-0.0623302
-0.0505604
-0.0572832
-0.0660589
-0.0691959
-0.0727414
-0.684004
-0.675689
-0.65209
-0.610206
-0.556746
-0.498666
-0.438755
-0.378836
-0.323124
-0.278555
-0.226632
-0.186507
-0.164063
-0.156838
-0.154486
-0.189268
-0.20326
-0.19992
-0.194482
-0.18826
-0.641184
-0.633422
-0.625237
-0.5956
-0.5506
-0.498748
-0.443847
-0.386979
-0.332391
-0.287434
-0.237527
-0.190105
-0.223414
-0.30844
-0.493757
-0.660094
-0.677358
-0.660081
-0.60407
-0.55084
-0.601018
-0.598329
-0.596864
-0.574223
-0.538219
-0.493514
-0.443167
-0.388408
-0.332054
-0.282624
-0.233728
-0.164857
-0.185117
-0.271828
-0.395995
-0.436021
-0.386811
-0.32224
-0.278781
-0.255919
-0.577922
-0.579742
-0.569477
-0.556386
-0.527953
-0.487147
-0.4381
-0.383486
-0.32251
-0.26224
-0.205938
-0.0979098
0.0293554
0.215055
0.391886
0.572431
0.706281
0.782924
0.825283
0.862138
-0.547154
-0.546731
-0.544018
-0.542915
-0.519023
-0.481927
-0.433617
-0.376787
-0.309873
-0.234191
-0.157195
-0.0264356
0.175459
0.480788
0.773297
1.02013
1.19595
1.29638
1.34314
1.35819
-0.535384
-0.533501
-0.536695
-0.528663
-0.512099
-0.478114
-0.428968
-0.36935
-0.298504
-0.21091
-0.115291
0.0103219
0.238792
0.55406
0.859847
1.11696
1.308
1.4181
1.46691
1.48334
-0.521734
-0.520086
-0.523521
-0.515291
-0.511415
-0.478065
-0.427591
-0.36463
-0.290268
-0.19607
-0.091629
0.0144095
0.233162
0.511857
0.784942
1.02073
1.20554
1.31675
1.36632
1.37997
-0.51092
-0.510816
-0.510055
-0.509127
-0.507042
-0.476735
-0.428113
-0.364883
-0.288158
-0.192777
-0.0891729
-0.00547576
0.180652
0.418377
0.644929
0.840084
0.99774
1.09433
1.1365
1.14683
-0.50761
-0.508536
-0.506731
-0.511181
-0.505238
-0.477637
-0.429776
-0.36756
-0.292413
-0.201181
-0.102292
-0.0356214
0.112025
0.3118
0.494083
0.64584
0.768145
0.844227
0.876393
0.884116
-0.50066
-0.50168
-0.500327
-0.504661
-0.499888
-0.482273
-0.4376
-0.374643
-0.301035
-0.216139
-0.12276
-0.0665813
0.0440185
0.208617
0.352563
0.467065
0.557555
0.614977
0.639383
0.644664
-0.490815
-0.489517
-0.485795
-0.482223
-0.475879
-0.475887
-0.440766
-0.381316
-0.31006
-0.232322
-0.144635
-0.0944976
-0.0160002
0.117077
0.229332
0.315104
0.381353
0.424218
0.440762
0.444964
-0.504226
-0.500276
-0.495028
-0.490102
-0.487266
-0.486953
-0.445103
-0.384988
-0.314848
-0.245023
-0.163931
-0.117686
-0.0649954
0.0411995
0.127868
0.191867
0.241052
0.273073
0.284799
0.289009
-0.542665
-0.540971
-0.54188
-0.546079
-0.547036
-0.528809
-0.461982
-0.389603
-0.316028
-0.252095
-0.178511
-0.135379
-0.100454
-0.0162631
0.0496567
0.0975022
0.134958
0.159429
0.168851
0.171308
-0.592884
-0.597476
-0.609986
-0.6194
-0.615896
-0.570286
-0.477081
-0.391777
-0.311423
-0.25174
-0.186858
-0.146773
-0.121968
-0.0556646
-0.00661187
0.0287286
0.0566424
0.073735
0.0812964
0.0833112
-0.565228
-0.570474
-0.585163
-0.598379
-0.596488
-0.54725
-0.460308
-0.376174
-0.298235
-0.241472
-0.187002
-0.151373
-0.130012
-0.0800458
-0.0447162
-0.0190195
0.000283457
0.0112765
0.0157007
0.01632
-0.430831
-0.438262
-0.451992
-0.462424
-0.462313
-0.433619
-0.382709
-0.327173
-0.268201
-0.219813
-0.178153
-0.149175
-0.128794
-0.0929387
-0.0681788
-0.0510293
-0.0393684
-0.0334648
-0.0318154
-0.0323555
-0.261494
-0.266036
-0.273051
-0.281448
-0.286332
-0.280338
-0.265464
-0.244729
-0.215175
-0.186048
-0.159559
-0.139076
-0.121843
-0.0974694
-0.0814895
-0.0713386
-0.0654288
-0.0634761
-0.0639779
-0.0651106
-0.111374
-0.113703
-0.118491
-0.127092
-0.137579
-0.146827
-0.154415
-0.158151
-0.153129
-0.144941
-0.132955
-0.121859
-0.110842
-0.0959972
-0.0870132
-0.0823998
-0.0807221
-0.081297
-0.0828981
-0.0842783
-0.00673262
-0.00805161
-0.0113612
-0.0197447
-0.0342943
-0.0524077
-0.0709818
-0.0873184
-0.0972165
-0.104016
-0.102735
-0.100277
-0.0966273
-0.0895458
-0.0862319
-0.085687
-0.0867621
-0.0888363
-0.0907905
-0.0922029
0.0502128
0.0492445
0.0467857
0.0389479
0.0233048
0.00211475
-0.0200011
-0.0404602
-0.0557662
-0.0694129
-0.0740802
-0.0774071
-0.080499
-0.0785183
-0.0800437
-0.082836
-0.0857489
-0.088473
-0.0903961
-0.0917102
0.0732685
0.0726263
0.0707437
0.0640404
0.0498646
0.0296913
0.00770811
-0.0134263
-0.0298508
-0.0448364
-0.05124
-0.0570852
-0.063722
-0.0656635
-0.0706839
-0.0755654
-0.0795523
-0.0825799
-0.084365
-0.0855136
0.0767884
0.0763288
0.0748922
0.0696594
0.0582934
0.0414673
0.0219044
0.00183383
-0.014386
-0.0292039
-0.0357592
-0.0417014
-0.0487477
-0.0539464
-0.0604739
-0.0660606
-0.0703386
-0.0734182
-0.0749583
-0.075913
0.070546
0.0702357
0.0691556
0.0652752
0.0567551
0.043865
0.0280542
0.0105497
-0.0044259
-0.0189026
-0.0254659
-0.0306349
-0.0374056
-0.0436439
-0.0503294
-0.0557275
-0.0598027
-0.062647
-0.063843
-0.0646088
0.0603015
0.0601168
0.059329
0.0565629
0.0504026
0.0409506
0.0290155
0.0150673
0.00259025
-0.0110115
-0.0178694
-0.0226671
-0.0286302
-0.0343993
-0.0405865
-0.0454675
-0.0491148
-0.0515988
-0.0525249
-0.0531326
0.0489855
0.0488952
0.0483438
0.0464738
0.0421746
0.0354203
0.0267278
0.0161983
0.00688878
-0.00479381
-0.0113671
-0.0160179
-0.0211638
-0.0260942
-0.031531
-0.035721
-0.0388913
-0.0410282
-0.0417294
-0.0421891
0.0380062
0.0379784
0.0375991
0.03639
0.0334789
0.0287921
0.0225962
0.014776
0.00829756
-0.000783865
-0.0058881
-0.00982067
-0.0143029
-0.0186074
-0.0233206
-0.0268446
-0.0294844
-0.0312325
-0.0317984
-0.0321693
0.0279656
0.0279724
0.0277083
0.0269598
0.0250498
0.0219388
0.0176865
0.0120088
0.00771947
0.00107045
-0.00227203
-0.00509613
-0.00861331
-0.0121982
-0.0161666
-0.0189748
-0.0210158
-0.0223465
-0.0227662
-0.0230624
0.0189861
0.0189971
0.0188339
0.0184229
0.0172327
0.0152838
0.0126084
0.00866665
0.0060641
0.0014158
-0.000515384
-0.0022216
-0.00468349
-0.0072474
-0.0102638
-0.0123127
-0.0137348
-0.0146132
-0.0149175
-0.0151844
0.0107531
0.0107713
0.0107278
0.0105938
0.00998406
0.00891867
0.00753576
0.00507462
0.00380448
0.000893063
6.36142e-05
-0.000797992
-0.00224682
-0.0036419
-0.00572946
-0.00695469
-0.00776661
-0.00820181
-0.00824308
-0.00843541
0.00343709
0.00344961
0.00346719
0.00352366
0.00340609
0.0030612
0.00270082
0.00159998
0.00139636
0.000143872
0.000161623
1.41276e-05
-0.000734135
-0.0010495
-0.00232009
-0.00292624
-0.00357012
-0.00391649
-0.00367802
-0.00365559
-1.07644
-0.241848
0.027957
0.302082
0.480657
0.632996
0.753833
0.877425
1.01544
1.10096
-0.101763
0.302246
0.316154
0.502728
0.623238
0.73133
0.823865
0.906718
0.933335
0.89226
0.269983
0.481764
0.514325
0.64959
0.732952
0.810665
0.874832
0.923113
0.924776
0.93941
0.495931
0.63662
0.670791
0.770413
0.826612
0.88258
0.926602
0.958524
0.967388
0.991267
0.671065
0.770646
0.800264
0.86608
0.910325
0.950245
0.981895
1.00598
1.01562
1.04735
0.812404
0.880146
0.910225
0.952213
0.987867
1.01751
1.0415
1.06222
1.07619
1.1046
0.93031
0.98028
1.00561
1.03317
1.06046
1.084
1.1038
1.12303
1.13782
1.16442
1.03331
1.07001
1.0909
1.11134
1.13192
1.15117
1.16852
1.18663
1.20148
1.22517
1.12683
1.15579
1.17202
1.18719
1.20319
1.21919
1.23472
1.25161
1.26523
1.28756
1.21485
1.23524
1.25003
1.26315
1.27668
1.29042
1.30392
1.31851
1.33005
1.34969
1.30017
1.31593
1.32973
1.34152
1.35343
1.36506
1.37619
1.38786
1.39554
1.41233
1.38535
1.39789
1.4116
1.42334
1.43397
1.44376
1.45259
1.46084
1.4644
1.47563
1.47409
1.48492
1.49839
1.50791
1.51547
1.52276
1.52994
1.5364
1.53751
1.54486
1.57249
1.5771
1.58529
1.59002
1.59341
1.59788
1.60388
1.61152
1.61544
1.62531
1.68577
1.67265
1.66536
1.65966
1.65693
1.65827
1.66458
1.67694
1.69178
1.72145
1.80773
1.75169
1.72067
1.70347
1.69525
1.69518
1.70405
1.72368
1.75545
1.82473
)
;

boundaryField
{
    wall-4
    {
        type            zeroGradient;
    }
    pressure-outlet-7
    {
        type            fixedValue;
        value           uniform 0;
    }
    velocity-inlet-6
    {
        type            zeroGradient;
    }
    velocity-inlet-5
    {
        type            zeroGradient;
    }
    frontAndBackPlanes
    {
        type            empty;
    }
}


// ************************************************************************* //
