/*--------------------------------*- C++ -*----------------------------------*\
| =========                 |                                                 |
| \\      /  F ield         | OpenFOAM: The Open Source CFD Toolbox           |
|  \\    /   O peration     | Version:  v2012                                 |
|   \\  /    A nd           | Website:  www.openfoam.com                      |
|    \\/     M anipulation  |                                                 |
\*---------------------------------------------------------------------------*/
FoamFile
{
    version     2.0;
    format      ascii;
    class       volScalarField;
    location    "16";
    object      p;
}
// * * * * * * * * * * * * * * * * * * * * * * * * * * * * * * * * * * * * * //

dimensions      [0 2 -2 0 0 0 0];


internalField   nonuniform List<scalar> 
2200
(
0.391689
0.37022
0.354354
0.338743
0.324221
0.311835
0.301615
0.293565
0.287889
0.28489
0.285186
0.288662
0.294683
0.302992
0.313392
0.325911
0.340519
0.356182
0.37208
0.393566
0.324024
0.320774
0.317908
0.313859
0.308477
0.30212
0.295641
0.28984
0.285442
0.282998
0.283252
0.286224
0.290999
0.29708
0.303757
0.310246
0.315726
0.319846
0.322756
0.326019
0.283878
0.284162
0.286315
0.287789
0.288369
0.287655
0.285745
0.283187
0.280712
0.279151
0.27945
0.28157
0.284467
0.287324
0.289449
0.290317
0.289846
0.28845
0.286357
0.286096
0.261151
0.262631
0.265502
0.268251
0.270916
0.273132
0.274454
0.274802
0.274375
0.273893
0.274286
0.275392
0.276278
0.276277
0.275204
0.273167
0.27063
0.267967
0.265153
0.26369
0.247098
0.249053
0.252004
0.254962
0.257954
0.260945
0.263648
0.265758
0.267092
0.267784
0.268225
0.268258
0.267489
0.26579
0.263386
0.260607
0.257768
0.254915
0.252029
0.250084
0.240092
0.241653
0.243894
0.246562
0.249358
0.252083
0.254647
0.25707
0.259215
0.260735
0.26122
0.260581
0.259148
0.257232
0.255019
0.252543
0.249924
0.24738
0.245211
0.243654
0.237128
0.238061
0.239531
0.241937
0.244517
0.246913
0.249023
0.251031
0.252959
0.254513
0.255125
0.254672
0.253614
0.252221
0.250519
0.248427
0.24605
0.243774
0.242367
0.24144
0.236105
0.236545
0.237548
0.239632
0.241946
0.244158
0.246112
0.247903
0.24949
0.250804
0.251572
0.251585
0.251001
0.249982
0.24857
0.246755
0.244702
0.242794
0.241867
0.241439
0.235949
0.236085
0.236695
0.238107
0.239768
0.241551
0.243362
0.245136
0.246726
0.248069
0.24901
0.24928
0.248868
0.248043
0.246983
0.245701
0.244371
0.243178
0.242662
0.242522
0.234884
0.234897
0.235179
0.235849
0.236714
0.237825
0.239209
0.240847
0.242542
0.24417
0.245402
0.245927
0.245805
0.245298
0.244746
0.244181
0.24369
0.243275
0.243096
0.243087
0.232205
0.232196
0.232351
0.232695
0.233209
0.233914
0.234859
0.236195
0.237797
0.239599
0.241175
0.242185
0.242688
0.242756
0.242648
0.242608
0.242556
0.242507
0.242487
0.242484
0.228886
0.228832
0.229017
0.229376
0.229971
0.230705
0.231642
0.23291
0.234486
0.236378
0.238235
0.239682
0.240655
0.241251
0.241556
0.241705
0.241721
0.24171
0.241708
0.241713
0.22535
0.225348
0.22553
0.225955
0.226577
0.22746
0.22869
0.23017
0.23201
0.234229
0.236493
0.238288
0.239531
0.240381
0.24095
0.241222
0.241318
0.241348
0.241364
0.24137
0.22133
0.221341
0.221489
0.221873
0.222531
0.223451
0.224752
0.226477
0.228722
0.231501
0.234427
0.236758
0.238411
0.239545
0.240325
0.240812
0.241106
0.241278
0.24136
0.241357
0.216536
0.216521
0.216715
0.217089
0.217717
0.218666
0.220066
0.222033
0.224707
0.228142
0.231892
0.234993
0.237225
0.238774
0.239866
0.240599
0.24108
0.241373
0.241511
0.241507
0.210822
0.210805
0.211053
0.211512
0.212271
0.213442
0.215122
0.217484
0.220723
0.224945
0.229627
0.233611
0.236481
0.23854
0.239971
0.240933
0.241566
0.241948
0.242126
0.242119
0.204275
0.204255
0.204542
0.205161
0.206142
0.207608
0.209733
0.212716
0.21677
0.222041
0.227877
0.232854
0.236485
0.239084
0.240849
0.242036
0.242798
0.243243
0.243443
0.243432
0.196575
0.196565
0.196943
0.19775
0.199018
0.200874
0.203554
0.207313
0.212427
0.219056
0.226351
0.23253
0.237049
0.240237
0.242421
0.243899
0.244862
0.245439
0.245697
0.245682
0.187585
0.187564
0.18802
0.188975
0.190549
0.19292
0.196327
0.201099
0.20756
0.215891
0.224989
0.232646
0.23824
0.242193
0.244926
0.246777
0.247976
0.248679
0.248986
0.248958
0.176586
0.176589
0.177231
0.178507
0.180544
0.183562
0.187922
0.19402
0.202218
0.212681
0.22397
0.233412
0.240289
0.245145
0.248495
0.250753
0.252233
0.25312
0.253512
0.253485
0.163311
0.163286
0.164077
0.165703
0.168366
0.172368
0.178054
0.185915
0.196353
0.209463
0.223394
0.234954
0.243356
0.2493
0.253424
0.256227
0.258052
0.25912
0.25958
0.259529
0.146418
0.14649
0.147661
0.149917
0.153526
0.158858
0.166387
0.176661
0.189988
0.206355
0.223434
0.237479
0.247665
0.254893
0.259906
0.263308
0.265549
0.266876
0.267451
0.267396
0.125326
0.125336
0.126924
0.13009
0.135113
0.142516
0.152673
0.166141
0.183113
0.203401
0.224133
0.241015
0.253243
0.261961
0.268094
0.272318
0.275109
0.276765
0.277455
0.277344
0.0973228
0.0977328
0.100275
0.104998
0.112345
0.122813
0.136672
0.154369
0.175859
0.200773
0.225689
0.245777
0.260337
0.2708
0.27823
0.283426
0.286906
0.28895
0.289836
0.289703
0.0599934
0.0606642
0.0648915
0.0728375
0.0842596
0.0993714
0.118442
0.141573
0.168501
0.198744
0.22829
0.251854
0.268936
0.281334
0.290301
0.296713
0.301177
0.303936
0.3051
0.304808
0.0103059
0.0109377
0.0189205
0.0323444
0.0503701
0.0723728
0.0983004
0.128042
0.161321
0.197498
0.23198
0.259209
0.279014
0.293554
0.304305
0.312235
0.317872
0.321298
0.32249
0.322086
-0.0578018
-0.0539245
-0.0368234
-0.013993
0.0129008
0.0432241
0.0769844
0.114199
0.154572
0.197385
0.237524
0.269186
0.29254
0.310076
0.323386
0.333596
0.341382
0.346601
0.348353
0.348198
-0.138194
-0.124487
-0.095057
-0.0618246
-0.0252009
0.0136427
0.0556086
0.100673
0.1484
0.198263
0.244734
0.281551
0.309083
0.330282
0.347044
0.360396
0.371146
0.378822
0.383415
0.384087
-0.203763
-0.186692
-0.149231
-0.10779
-0.0625472
-0.0151416
0.0350994
0.0878026
0.142629
0.199257
0.251613
0.293067
0.324228
0.348308
0.367387
0.382683
0.394645
0.403705
0.408136
0.408573
-0.252581
-0.237437
-0.195104
-0.148527
-0.0965695
-0.0418359
0.0157072
0.0753449
0.136892
0.199951
0.25778
0.303243
0.33707
0.362908
0.382967
0.398818
0.41117
0.420053
0.424435
0.425036
-0.29266
-0.278007
-0.233206
-0.183511
-0.126284
-0.0658548
-0.0023119
0.0634389
0.131156
0.200044
0.262612
0.311104
0.346628
0.373351
0.393744
0.409646
0.421973
0.430825
0.435453
0.436072
-0.327012
-0.312093
-0.265315
-0.21332
-0.152041
-0.0873037
-0.0189147
0.0520852
0.125154
0.199037
0.265613
0.316661
0.35352
0.380881
0.401649
0.417648
0.430141
0.438902
0.443892
0.444256
-0.357145
-0.34222
-0.293297
-0.238977
-0.174572
-0.106628
-0.0343348
0.0410862
0.118739
0.197164
0.267651
0.321192
0.359394
0.387515
0.408666
0.424705
0.437134
0.446111
0.450596
0.451044
-0.384313
-0.369584
-0.318668
-0.261857
-0.194806
-0.124335
-0.0488402
0.0303188
0.112013
0.194675
0.268883
0.324893
0.364685
0.393602
0.415243
0.431545
0.443846
0.452812
0.457161
0.457558
-0.409209
-0.39461
-0.342416
-0.283188
-0.213691
-0.140915
-0.0626352
0.019747
0.105043
0.191714
0.269736
0.328734
0.370231
0.40009
0.421983
0.43825
0.450477
0.459249
0.463679
0.464149
-0.432683
-0.417653
-0.365024
-0.303765
-0.231977
-0.156856
-0.0759536
0.00931953
0.0979391
0.188523
0.270549
0.332254
0.375305
0.405983
0.428478
0.445082
0.457428
0.466099
0.470492
0.470906
-0.454703
-0.439453
-0.386539
-0.323839
-0.250085
-0.172623
-0.0891573
-0.00117455
0.0905373
0.184707
0.270281
0.334922
0.380286
0.412386
0.435406
0.452233
0.464568
0.473039
0.477461
0.477909
-0.47549
-0.460322
-0.406982
-0.343279
-0.268048
-0.188484
-0.102629
-0.0121235
0.0823805
0.179849
0.269147
0.337424
0.385141
0.41864
0.442468
0.459638
0.472148
0.48067
0.484878
0.485253
-0.495623
-0.480312
-0.426513
-0.361974
-0.285665
-0.20442
-0.116524
-0.0237536
0.073388
0.174162
0.267511
0.339107
0.389489
0.424967
0.449958
0.467666
0.480247
0.488378
0.492614
0.492946
-0.515481
-0.499554
-0.445325
-0.379975
-0.302783
-0.220252
-0.130693
-0.0359128
0.063729
0.167561
0.264447
0.339809
0.393972
0.431968
0.458244
0.476327
0.488858
0.497087
0.500951
0.501084
-0.53499
-0.518271
-0.463642
-0.397428
-0.319375
-0.235789
-0.144867
-0.0483673
0.0534499
0.159941
0.260267
0.339866
0.397387
0.438556
0.466909
0.485925
0.498385
0.505808
0.509339
0.509357
-0.553984
-0.536576
-0.481571
-0.41447
-0.335532
-0.250987
-0.158908
-0.0609961
0.042626
0.151521
0.255253
0.33869
0.400279
0.444958
0.476172
0.496573
0.508824
0.515482
0.518115
0.517817
-0.572374
-0.554504
-0.499114
-0.431146
-0.351351
-0.265911
-0.172831
-0.0737428
0.0314026
0.142329
0.248786
0.335877
0.401781
0.450966
0.48616
0.509045
0.52146
0.525675
0.525911
0.525649
-0.590142
-0.571951
-0.516173
-0.447408
-0.366858
-0.28062
-0.186672
-0.0865757
0.0198508
0.132392
0.241106
0.331824
0.402021
0.455894
0.495912
0.523187
0.537264
0.539319
0.534832
0.532033
-0.607268
-0.588807
-0.532636
-0.463172
-0.382005
-0.295099
-0.200407
-0.0994635
0.00799265
0.121873
0.232502
0.326092
0.400128
0.459163
0.505252
0.539157
0.558854
0.557998
0.549868
0.554482
-0.623721
-0.604994
-0.548415
-0.47835
-0.396697
-0.309255
-0.213968
-0.112372
-0.00412572
0.11079
0.222793
0.318197
0.395687
0.459681
0.512218
0.5542
0.585184
0.580633
0.537124
0.48609
-0.639426
-0.62051
-0.563535
-0.492995
-0.410993
-0.32318
-0.227488
-0.125443
-0.0166635
0.0989778
0.211892
0.308665
0.388657
0.45665
0.515209
0.566964
0.613208
0.641845
0.668681
0.719744
-0.654335
-0.635441
-0.578108
-0.507242
-0.425044
-0.337049
-0.241186
-0.138958
-0.029986
0.0859602
0.1991
0.296012
0.376945
0.447817
0.508057
0.559017
0.596191
0.61658
0.601289
0.606313
-0.66841
-0.649737
-0.592106
-0.521052
-0.438769
-0.35075
-0.254915
-0.15279
-0.0439928
0.0716321
0.184323
0.280654
0.35997
0.42924
0.486978
0.530354
0.538814
0.506698
0.456566
0.450618
-0.681714
-0.663385
-0.605542
-0.53444
-0.452174
-0.36429
-0.268675
-0.166898
-0.0586569
0.056169
0.16797
0.262465
0.338574
0.401224
0.451002
0.468098
0.438833
0.372903
0.302958
0.296204
-0.694304
-0.676359
-0.618428
-0.547433
-0.465295
-0.377695
-0.282462
-0.181256
-0.0738968
0.039658
0.149637
0.241063
0.310191
0.360016
0.386026
0.374703
0.32851
0.227515
0.139552
0.124933
-0.706626
-0.689102
-0.631154
-0.560389
-0.478477
-0.391268
-0.296547
-0.196108
-0.0898881
0.0218281
0.128974
0.216408
0.278614
0.313833
0.304149
0.264009
0.158477
0.0332368
-0.0768578
-0.0987513
-0.719507
-0.702362
-0.644387
-0.573902
-0.492275
-0.405478
-0.31134
-0.211782
-0.106898
0.00261272
0.106571
0.188856
0.244365
0.254978
0.209531
0.117898
-0.0476646
-0.206366
-0.337273
-0.361953
-0.733432
-0.716576
-0.658429
-0.588184
-0.506852
-0.420439
-0.326896
-0.228312
-0.124918
-0.0179393
0.08135
0.15777
0.203795
0.186412
0.113114
-0.0476944
-0.267142
-0.495009
-0.684078
-0.731314
-0.748425
-0.731753
-0.673308
-0.603234
-0.522171
-0.436104
-0.343174
-0.245633
-0.143877
-0.0396528
0.0549604
0.125957
0.156545
0.104773
-0.00536228
-0.220716
-0.483652
-0.805287
-1.15232
-1.29261
-0.76455
-0.748004
-0.689112
-0.61911
-0.538258
-0.452512
-0.360183
-0.263768
-0.163794
-0.0625538
0.0265987
0.0921756
0.106623
0.0156481
-0.15009
-0.397614
-0.675096
-1.06951
-1.70849
-2.30735
-0.781785
-0.765269
-0.705871
-0.635854
-0.555112
-0.46962
-0.377864
-0.282582
-0.184466
-0.0861519
-0.00267093
0.0543786
0.0513023
-0.0690562
-0.295267
-0.585752
-0.841241
-1.13818
-1.78834
-3.48328
-0.800181
-0.783581
-0.723592
-0.65361
-0.572868
-0.487588
-0.396418
-0.302301
-0.206178
-0.111199
-0.0327335
0.0159668
-0.00666817
-0.140929
-0.411011
-0.719903
-0.92552
-1.01408
-1.06033
-1.499
-0.81967
-0.802871
-0.742414
-0.672707
-0.591831
-0.506804
-0.416344
-0.323535
-0.229709
-0.138646
-0.0648739
-0.0263172
-0.067631
-0.192711
-0.475882
-0.759068
-0.927924
-0.968612
-0.927768
-0.978847
-0.840188
-0.823015
-0.762384
-0.693145
-0.611974
-0.527321
-0.437742
-0.346314
-0.255008
-0.168328
-0.0984049
-0.0675779
-0.130058
-0.246629
-0.520776
-0.760472
-0.897797
-0.93836
-0.969066
-0.987487
-0.861392
-0.843998
-0.783622
-0.714785
-0.633164
-0.549097
-0.460515
-0.370587
-0.281982
-0.200034
-0.134649
-0.109199
-0.182197
-0.306932
-0.558617
-0.762693
-0.881016
-0.872088
-0.898744
-0.896308
-0.883087
-0.865581
-0.806107
-0.737339
-0.65522
-0.571946
-0.484494
-0.396028
-0.310057
-0.232896
-0.171256
-0.151572
-0.235767
-0.382376
-0.599228
-0.766174
-0.86961
-0.871561
-0.876388
-0.881373
-0.904948
-0.887524
-0.829236
-0.760363
-0.677927
-0.595662
-0.509299
-0.422328
-0.33906
-0.266639
-0.209339
-0.191438
-0.290071
-0.464175
-0.640692
-0.756332
-0.831555
-0.893469
-0.855214
-0.865752
-0.926769
-0.909614
-0.85219
-0.783339
-0.701014
-0.619874
-0.534411
-0.449159
-0.368353
-0.300068
-0.249123
-0.233089
-0.343321
-0.55306
-0.695654
-0.766078
-0.756374
-0.847126
-0.825435
-0.837743
-0.947838
-0.931212
-0.874445
-0.805699
-0.724057
-0.644086
-0.55915
-0.475656
-0.396831
-0.331416
-0.289404
-0.268417
-0.408111
-0.654333
-0.763766
-0.754765
-0.697984
-0.763397
-0.802226
-0.8121
-0.967639
-0.951658
-0.895429
-0.826672
-0.746874
-0.667407
-0.582728
-0.501716
-0.424618
-0.359263
-0.327472
-0.291335
-0.467084
-0.764174
-0.904284
-0.893677
-0.876079
-0.879438
-0.912389
-0.911675
-0.985033
-0.969982
-0.914714
-0.846345
-0.768481
-0.688512
-0.604705
-0.526625
-0.450767
-0.383379
-0.367504
-0.312926
-0.519221
-0.889852
-1.24417
-1.43657
-1.46356
-1.39885
-1.35771
-1.32245
-0.999156
-0.985154
-0.931448
-0.863697
-0.786786
-0.706974
-0.625159
-0.547061
-0.473104
-0.401944
-0.401894
-0.342346
-0.561935
-0.979963
-1.55466
-2.15505
-2.32738
-2.24481
-2.07245
-1.95819
-1.00864
-0.995937
-0.944206
-0.877034
-0.800727
-0.721713
-0.641778
-0.56333
-0.491042
-0.419129
-0.408774
-0.356274
-0.543499
-0.913959
-1.42616
-1.91839
-2.01534
-1.9152
-1.77662
-1.70685
-1.012
-1.00051
-0.951176
-0.884848
-0.809337
-0.731582
-0.65304
-0.57545
-0.500355
-0.427238
-0.397246
-0.347054
-0.423341
-0.500682
-0.567986
-0.621887
-0.583841
-0.509164
-0.429237
-0.336949
-1.00729
-0.997313
-0.95089
-0.885757
-0.811633
-0.735824
-0.65849
-0.582603
-0.503327
-0.419479
-0.358729
-0.281514
-0.179295
0.0436984
0.305897
0.53055
0.701329
0.824128
0.889804
0.911323
-0.992597
-0.984117
-0.941784
-0.878729
-0.806431
-0.733159
-0.658267
-0.584084
-0.50311
-0.40665
-0.296987
-0.176402
0.0717968
0.436065
0.83764
1.18023
1.44034
1.58885
1.64053
1.65477
-0.966203
-0.959377
-0.921478
-0.861608
-0.792469
-0.722684
-0.652405
-0.581316
-0.50331
-0.404951
-0.260817
-0.0926227
0.19871
0.563671
0.985032
1.32848
1.59927
1.74695
1.79957
1.81012
-0.927474
-0.92263
-0.889283
-0.833888
-0.76944
-0.704596
-0.641369
-0.577197
-0.510289
-0.428721
-0.271739
-0.0730283
0.1777
0.508937
0.874948
1.18926
1.44268
1.58185
1.63571
1.65081
-0.875036
-0.8709
-0.84357
-0.795229
-0.737542
-0.680429
-0.628614
-0.580359
-0.539891
-0.498791
-0.398769
-0.243617
0.00387021
0.323855
0.659085
0.947679
1.1604
1.28334
1.33209
1.35005
-0.81166
-0.807729
-0.785937
-0.745943
-0.698184
-0.653471
-0.618814
-0.598653
-0.61133
-0.658475
-0.701809
-0.571076
-0.289977
0.0333806
0.369505
0.624926
0.801945
0.897983
0.941089
0.957924
-0.733149
-0.731675
-0.715945
-0.687101
-0.652182
-0.622028
-0.605087
-0.613018
-0.678236
-0.829178
-1.03341
-0.911767
-0.585004
-0.256497
0.134446
0.348508
0.485905
0.544755
0.572898
0.581115
-0.636368
-0.638171
-0.630412
-0.613565
-0.593089
-0.576088
-0.572102
-0.595938
-0.687738
-0.880477
-1.16608
-1.06715
-0.722007
-0.371747
-0.0703987
0.117217
0.228995
0.274758
0.297142
0.304061
-0.538214
-0.538539
-0.534589
-0.527029
-0.516872
-0.50987
-0.512205
-0.539665
-0.627428
-0.798156
-1.05486
-0.943463
-0.623359
-0.339241
-0.138772
-0.0132609
0.0585849
0.0896205
0.106256
0.111841
-0.433234
-0.434394
-0.4327
-0.429303
-0.425525
-0.423232
-0.427598
-0.449663
-0.512893
-0.637534
-0.791038
-0.647943
-0.401262
-0.23916
-0.115494
-0.0437746
-0.0145739
0.000527717
0.00954623
0.0122161
-0.329034
-0.330441
-0.330199
-0.328708
-0.327226
-0.326253
-0.328413
-0.339716
-0.373724
-0.442224
-0.511414
-0.359795
-0.218848
-0.142976
-0.0709663
-0.0471715
-0.0358686
-0.0297138
-0.0263476
-0.0257154
-0.232063
-0.233187
-0.23365
-0.232951
-0.231718
-0.230352
-0.229042
-0.230046
-0.238452
-0.25962
-0.260878
-0.163799
-0.0990652
-0.0594001
-0.0367569
-0.0321828
-0.0289378
-0.0279504
-0.0278241
-0.0283917
-0.149631
-0.150481
-0.151445
-0.151169
-0.149603
-0.146937
-0.142281
-0.135897
-0.126732
-0.111963
-0.0767514
-0.0331835
-0.013343
-0.0006965
-0.00199122
-0.00545293
-0.00757037
-0.00988751
-0.0115798
-0.0128492
-0.0849215
-0.0855128
-0.0866836
-0.0870309
-0.0858023
-0.0826533
-0.0762832
-0.0664132
-0.0504406
-0.0221015
0.0155062
0.0413061
0.0410999
0.0371529
0.0272051
0.0201621
0.0152547
0.0114096
0.00903455
0.0076217
-0.0373321
-0.037737
-0.0388019
-0.039666
-0.039174
-0.0366875
-0.0307266
-0.0205711
-0.00428804
0.0221332
0.0544972
0.0691317
0.0638338
0.0558159
0.0451148
0.0375878
0.0321498
0.0282178
0.025935
0.0247231
-0.0045026
-0.00477034
-0.00561634
-0.00659903
-0.00666304
-0.0052735
-0.000929989
0.00754822
0.0214281
0.0428223
0.0662015
0.0764076
0.0703276
0.0626129
0.053667
0.0471791
0.0424109
0.0390942
0.0372211
0.0362933
0.0166243
0.0164438
0.0158292
0.0150267
0.0148378
0.015508
0.0182084
0.0241771
0.0344354
0.0503012
0.0662251
0.0738477
0.068877
0.0628783
0.0562501
0.0512949
0.0476362
0.0451029
0.0436887
0.0430113
0.0296301
0.0294841
0.0290718
0.028509
0.0284452
0.0289126
0.0306395
0.0344229
0.041134
0.051846
0.0623123
0.0673715
0.0640268
0.0598941
0.0553806
0.0518608
0.0492167
0.0473392
0.0463134
0.0458305
0.0377182
0.0375834
0.0372758
0.0367944
0.0366959
0.0370225
0.0382954
0.040738
0.0449546
0.0515918
0.057925
0.0608407
0.058622
0.0558512
0.0528341
0.0503082
0.0483183
0.0468546
0.0460916
0.0457496
0.0425117
0.0423849
0.0420638
0.041467
0.0410729
0.0410291
0.04181
0.0434135
0.046205
0.0502778
0.0538852
0.0553147
0.0537239
0.0517443
0.0495926
0.0476379
0.0460164
0.0447998
0.0441945
0.0439469
0.0443794
0.0442599
0.0438897
0.0431597
0.0424746
0.042015
0.0421673
0.0429885
0.0448089
0.0474451
0.0496309
0.0503018
0.0491212
0.0475948
0.0459409
0.0443715
0.0430376
0.0420303
0.0415421
0.0413568
0.0437152
0.043613
0.0432465
0.0425196
0.0417628
0.0411199
0.0408079
0.0409562
0.0419093
0.0435301
0.0449357
0.0452773
0.0444136
0.0432265
0.0419494
0.0407313
0.0396888
0.0388954
0.0385165
0.0383779
0.0414291
0.0413522
0.0410456
0.040425
0.0397567
0.0391476
0.0386725
0.0384586
0.0387457
0.0395137
0.0402585
0.0403344
0.0396598
0.0387461
0.0377821
0.0368719
0.0360889
0.0354871
0.0352055
0.0351046
0.0382794
0.0382285
0.0379883
0.0374796
0.0369199
0.0363902
0.0359082
0.035589
0.0355098
0.0356955
0.0358877
0.0357004
0.0351026
0.0343817
0.0336428
0.0329549
0.0323619
0.0319034
0.0316943
0.0316197
0.0345855
0.0345539
0.0343569
0.0339207
0.0334345
0.0329481
0.0324745
0.0321264
0.0318874
0.0317979
0.0316803
0.0313424
0.0307958
0.0302001
0.0296011
0.0290538
0.0285852
0.028222
0.0280603
0.0280044
0.0304485
0.0304275
0.0302639
0.0298914
0.0294756
0.0290273
0.0285699
0.0282051
0.027888
0.0276934
0.0274595
0.0270913
0.0266071
0.0261073
0.0256148
0.025175
0.0248034
0.0245154
0.0243898
0.0243473
0.0260085
0.0259937
0.0258627
0.0255574
0.02522
0.024832
0.0244208
0.024066
0.0237128
0.0234698
0.0232012
0.022861
0.022449
0.0220424
0.0216502
0.0213057
0.021017
0.0207929
0.020696
0.0206631
0.021397
0.0213875
0.0212909
0.0210568
0.0207987
0.0204861
0.0201468
0.0198377
0.0194967
0.019235
0.0189537
0.0186509
0.0183127
0.0179924
0.0176865
0.017421
0.0172009
0.0170321
0.0169603
0.0169364
0.016709
0.0167018
0.0166329
0.0164604
0.016271
0.0160344
0.0157747
0.015532
0.0152416
0.0150058
0.0147437
0.0144852
0.0142144
0.0139691
0.0137385
0.0135396
0.0133753
0.0132496
0.0131957
0.0131778
0.0119862
0.0119829
0.0119357
0.0118125
0.0116771
0.0115067
0.0113183
0.0111425
0.0109216
0.0107433
0.0105382
0.0103443
0.010144
0.00996758
0.00980319
0.00966113
0.00954411
0.00945504
0.00941735
0.0094059
0.00722184
0.00722031
0.00719253
0.00711483
0.00703149
0.00692673
0.00680894
0.00670561
0.00656023
0.00645334
0.00632151
0.00620278
0.00607993
0.0059761
0.00587613
0.00578994
0.00571872
0.00566394
0.00564184
0.00563455
0.00242958
0.0024298
0.00241943
0.00238468
0.00235295
0.00231699
0.00227021
0.00224187
0.00218175
0.00215353
0.00210631
0.00206975
0.00202408
0.00199168
0.00195583
0.00192565
0.00189788
0.00187303
0.00186474
0.00186168
-1.63495
-0.711875
-0.435478
-0.135375
0.0695554
0.248023
0.399844
0.554232
0.718108
0.79608
-0.584112
-0.13908
-0.102262
0.100369
0.244895
0.374294
0.487657
0.586974
0.622314
0.576242
-0.15821
0.0773208
0.12982
0.273287
0.37463
0.466334
0.542434
0.599097
0.605956
0.616768
0.100477
0.261073
0.299767
0.413966
0.478205
0.543896
0.594298
0.629744
0.640929
0.663505
0.299455
0.410632
0.439895
0.520926
0.566063
0.613289
0.648613
0.674524
0.685707
0.71626
0.451892
0.52885
0.559363
0.60969
0.647444
0.680704
0.707057
0.72848
0.743632
0.7712
0.579004
0.633769
0.660594
0.691865
0.721672
0.747011
0.768222
0.788035
0.80355
0.829666
0.687557
0.727234
0.749346
0.771394
0.793701
0.814154
0.832262
0.850911
0.866148
0.88967
0.784998
0.814653
0.832345
0.848385
0.865445
0.882177
0.898177
0.915526
0.929118
0.951373
0.875006
0.896244
0.911714
0.925401
0.939471
0.953646
0.96725
0.981843
0.993318
1.01301
0.961991
0.97803
0.992188
1.00435
1.01653
1.02823
1.03934
1.05104
1.05875
1.0756
1.0478
1.06082
1.07469
1.08643
1.09706
1.10687
1.1157
1.12403
1.12765
1.13889
1.13732
1.14828
1.16181
1.17107
1.17856
1.18579
1.19305
1.19967
1.20064
1.20804
1.23595
1.24072
1.24877
1.25326
1.25652
1.26097
1.26693
1.27469
1.27856
1.28844
1.34936
1.33564
1.32818
1.32246
1.31974
1.32111
1.32767
1.34015
1.35484
1.38449
1.47
1.41441
1.38348
1.36642
1.35832
1.35836
1.367
1.38639
1.41844
1.4876
)
;

boundaryField
{
    wall-4
    {
        type            zeroGradient;
    }
    pressure-outlet-7
    {
        type            fixedValue;
        value           uniform 0;
    }
    velocity-inlet-6
    {
        type            zeroGradient;
    }
    velocity-inlet-5
    {
        type            zeroGradient;
    }
    frontAndBackPlanes
    {
        type            empty;
    }
}


// ************************************************************************* //
