/*--------------------------------*- C++ -*----------------------------------*\
| =========                 |                                                 |
| \\      /  F ield         | OpenFOAM: The Open Source CFD Toolbox           |
|  \\    /   O peration     | Version:  v2012                                 |
|   \\  /    A nd           | Website:  www.openfoam.com                      |
|    \\/     M anipulation  |                                                 |
\*---------------------------------------------------------------------------*/
FoamFile
{
    version     2.0;
    format      ascii;
    class       surfaceScalarField;
    location    "16";
    object      phi;
}
// * * * * * * * * * * * * * * * * * * * * * * * * * * * * * * * * * * * * * //

dimensions      [0 3 -1 0 0 0 0];
oriented        oriented;


internalField   nonuniform List<scalar> 
4262
(
0.106995
0.470993
0.0954458
0.705135
0.0690547
0.858694
0.0468015
1.02102
0.0303103
1.21501
0.0191392
1.44939
0.0117354
1.73327
0.00664595
2.07613
0.00302613
2.48886
-0.000156798
2.98548
-0.00341871
2.98555
-0.00711201
2.48894
-0.0121731
2.0761
-0.0194676
1.73316
-0.0305439
1.4493
-0.0469807
1.21495
-0.0691852
1.02097
-0.0955211
0.858639
-0.10704
0.705105
0.470948
0.112527
0.358466
0.134593
0.683069
0.11971
0.873578
0.0970498
1.04368
0.0734644
1.23859
0.0517864
1.47107
0.0341223
1.75093
0.0206544
2.08959
0.00955025
2.49997
-0.000763533
2.99579
-0.0109999
2.99579
-0.0218142
2.49975
-0.0350228
2.08931
-0.0525483
1.75068
-0.0741385
1.47089
-0.0976148
1.23843
-0.12016
1.04351
-0.134941
0.87342
-0.112714
0.682878
0.358234
0.0916683
0.266798
0.124088
0.650649
0.12023
0.877436
0.104528
1.05938
0.0865259
1.25659
0.0673272
1.49027
0.0479489
1.77031
0.029845
2.1077
0.0138458
2.51597
-0.0011568
3.01079
-0.0160911
3.01072
-0.0318112
2.51547
-0.0497559
2.10725
-0.06895
1.76988
-0.0878831
1.48982
-0.105657
1.2562
-0.121158
1.05902
-0.124764
0.877025
-0.0919855
0.650099
0.266248
0.0625038
0.204294
0.102194
0.610958
0.103453
0.876178
0.0920631
1.07077
0.0785794
1.27008
0.0648071
1.50404
0.0491912
1.78593
0.0324362
2.12445
0.0154958
2.53291
-0.00178051
3.02807
-0.018938
3.02788
-0.0356793
2.53221
-0.0520069
2.12358
-0.0671907
1.78506
-0.0805512
1.50318
-0.0936181
1.26927
-0.104622
1.07002
-0.102982
0.875385
-0.0628399
0.609957
0.203408
0.0352613
0.169033
0.0757988
0.570421
0.0847279
0.867249
0.0771131
1.07838
0.0652366
1.28196
0.054149
1.51513
0.0428517
1.79722
0.0299525
2.13735
0.0150296
2.54783
-0.00236601
3.04546
-0.0194861
3.045
-0.033948
2.54667
-0.0463131
2.13594
-0.0570504
1.7958
-0.0675913
1.51372
-0.0790807
1.28076
-0.0862836
1.07722
-0.0768366
0.865938
-0.0356337
0.568754
0.167775
0.0175616
0.151471
0.0526126
0.53537
0.0661276
0.853734
0.0632148
1.0813
0.0541555
1.29101
0.0439381
1.52534
0.0337925
1.80737
0.0232294
2.14791
0.0114039
2.55966
-0.00309533
3.05996
-0.0172267
3.05913
-0.0283758
2.55782
-0.0381404
2.14571
-0.0477001
1.80536
-0.0574521
1.52347
-0.0659911
1.2893
-0.0683189
1.07955
-0.0539968
0.851616
-0.0180165
0.532774
0.149758
0.00792663
0.143544
0.0347348
0.508562
0.0493513
0.839117
0.0499629
1.08068
0.0443126
1.29666
0.0360419
1.53362
0.0272651
1.81615
0.017984
2.1572
0.00784562
2.56979
-0.00405679
3.07187
-0.0156712
3.07075
-0.0252025
2.56735
-0.0337168
2.15422
-0.0414053
1.81305
-0.0487238
1.53079
-0.0534411
1.29402
-0.0518994
1.07801
-0.0362137
0.83593
-0.00846401
0.505024
0.141294
0.00214522
0.141399
0.0184252
0.492282
0.0307683
0.826774
0.0338606
1.07759
0.0322519
1.29827
0.0280089
1.53786
0.0222221
1.82193
0.0147419
2.16468
0.00558203
2.57895
-0.00511059
3.08256
-0.0154158
3.08105
-0.0236618
2.5756
-0.029802
2.16036
-0.0341318
1.81738
-0.0372689
1.53393
-0.0377462
1.29449
-0.0335242
1.07379
-0.0200112
0.822417
-0.00270282
0.487716
0.138591
-0.000976657
0.142376
0.00609594
0.485209
0.0146712
0.818199
0.0188966
1.07337
0.0203284
1.29684
0.0195468
1.53864
0.0167374
1.82474
0.0113021
2.17011
0.00339282
2.58686
-0.0063768
3.09233
-0.0155156
3.09019
-0.0220199
2.58211
-0.0259522
2.16429
-0.0274039
1.81883
-0.0265928
1.53312
-0.0237447
1.29165
-0.0181818
1.06822
-0.00826029
0.812495
0.000199807
0.479256
0.138791
-0.00130399
0.14368
0.00128503
0.48262
0.00680179
0.812682
0.0110888
1.06908
0.0136653
1.29427
0.0140395
1.53827
0.0121098
1.82667
0.00787777
2.17434
0.00107994
2.59366
-0.00774811
3.10116
-0.015955
3.0984
-0.0212462
2.5874
-0.0239426
2.16699
-0.0241935
1.81908
-0.0217749
1.5307
-0.0174334
1.2873
-0.0113988
1.06219
-0.00394391
0.805041
0.000306246
0.475006
0.139098
-0.000592071
0.144272
0.000294365
0.481734
0.00431288
0.808664
0.00848189
1.06491
0.0113007
1.29145
0.0117319
1.53783
0.00952857
1.82887
0.00496872
2.1789
-0.00181258
2.60044
-0.0102144
3.10956
-0.0178273
3.10601
-0.0226129
2.59218
-0.0247686
2.16915
-0.0241951
1.81851
-0.0215991
1.5281
-0.0165708
1.28228
-0.0101861
1.0558
-0.00381924
0.798674
-0.000562295
0.471749
0.138535
-0.00062422
0.144896
-0.000678651
0.481788
0.00249974
0.805485
0.00661993
1.06079
0.00971966
1.28835
0.0101881
1.53737
0.00776381
1.8313
0.0026678
2.184
-0.00463783
2.60775
-0.0131689
3.11809
-0.0205753
3.11342
-0.0251719
2.59678
-0.0262923
2.17027
-0.0253738
1.81759
-0.0219752
1.5247
-0.0160679
1.27637
-0.00927362
1.04901
-0.00361275
0.793013
-0.000880769
0.469017
0.137654
-0.00120857
0.146105
-0.00220418
0.482784
-0.000808432
0.80409
0.0026471
1.05733
0.00551799
1.28548
0.00607474
1.53681
0.00384667
1.83353
-0.000993226
2.18884
-0.00798554
2.61474
-0.0161162
3.12622
-0.0228719
3.12017
-0.026687
2.60059
-0.0274595
2.17104
-0.0260191
1.81615
-0.0214112
1.5201
-0.0148915
1.26985
-0.0080092
1.04213
-0.00299718
0.788001
-0.000769055
0.466789
0.136885
-0.00151096
0.147616
-0.00355951
0.484832
-0.0035453
0.804075
-0.00126386
1.05505
0.000644688
1.28357
0.000704177
1.53675
-0.00180834
1.83604
-0.00652298
2.19355
-0.0130032
2.62122
-0.0203116
3.13353
-0.0258333
3.1257
-0.0283008
2.60306
-0.0280893
2.17083
-0.0252723
1.81333
-0.0202451
1.51507
-0.0138926
1.2635
-0.00756259
1.0358
-0.00310817
0.783546
-0.000896224
0.464577
0.135989
-0.00178595
0.149402
-0.00460294
0.487649
-0.00567666
0.805149
-0.00541025
1.05479
-0.00493426
1.28309
-0.00576681
1.53758
-0.0084938
1.83877
-0.0130656
2.19813
-0.0190147
2.62717
-0.025363
3.13988
-0.0294954
3.12983
-0.030475
2.60404
-0.0290754
2.16943
-0.0254585
1.80971
-0.0203913
1.51
-0.0144425
1.25755
-0.0086342
1.02999
-0.00423054
0.779143
-0.00141919
0.461765
0.13457
-0.00196938
0.151371
-0.00530599
0.490986
-0.00736785
0.807211
-0.00827051
1.05569
-0.00945546
1.28428
-0.0118486
1.53998
-0.0157295
1.84265
-0.0208865
2.20328
-0.0267556
2.63304
-0.0321683
3.14529
-0.0347532
3.13241
-0.0339765
2.60326
-0.0311851
2.16664
-0.0264987
1.80503
-0.0208964
1.5044
-0.0149819
1.25163
-0.00950821
1.02452
-0.00511198
0.774747
-0.00178707
0.45844
0.132783
-0.00270402
0.154075
-0.00728825
0.49557
-0.0110328
0.810955
-0.0135714
1.05823
-0.0162055
1.28691
-0.019641
1.54341
-0.0241394
1.84715
-0.0296314
2.20877
-0.0353742
2.63878
-0.0399075
3.14982
-0.0409453
3.13345
-0.0385671
2.60089
-0.0343571
2.16243
-0.0289512
1.79962
-0.023067
1.49851
-0.0171582
1.24572
-0.0115448
1.0189
-0.00648203
0.769684
-0.00226517
0.454224
0.130518
-0.00329752
0.157373
-0.00884622
0.501119
-0.013784
0.815893
-0.0180358
1.06248
-0.0226881
1.29156
-0.0281491
1.54887
-0.0343359
1.85333
-0.0407996
2.21524
-0.0466983
2.64468
-0.0503349
3.15346
-0.0495862
3.1327
-0.045429
2.59673
-0.0393781
2.15638
-0.0325157
1.79276
-0.0255292
1.49153
-0.0189036
1.2391
-0.0128907
1.01289
-0.00743486
0.764228
-0.00263736
0.449426
0.12788
-0.00458388
0.161956
-0.0123241
0.508859
-0.0193042
0.822873
-0.025231
1.06841
-0.0312137
1.29755
-0.0380292
1.55569
-0.0455758
1.86088
-0.053298
2.22296
-0.0598235
2.65121
-0.0629084
3.15654
-0.0604709
3.13026
-0.0543977
2.59066
-0.0466304
2.14861
-0.0385321
1.78466
-0.0307588
1.48376
-0.0235634
1.2319
-0.0166788
1.006
-0.00974311
0.757292
-0.00339851
0.443081
0.124482
-0.00558229
0.167539
-0.0147834
0.51806
-0.0234242
0.831514
-0.0316424
1.07663
-0.0405452
1.30645
-0.050149
1.56529
-0.0600959
1.87083
-0.0694794
2.23234
-0.0766793
2.65841
-0.0791123
3.15898
-0.0747689
3.12592
-0.0664851
2.58237
-0.0565606
2.13868
-0.0463829
1.77448
-0.0366858
1.47406
-0.0277252
1.22294
-0.0194264
0.997706
-0.0113962
0.749262
-0.00404302
0.435728
0.120439
-0.00792223
0.175461
-0.0208431
0.530981
-0.0324504
0.843121
-0.0427384
1.08691
-0.053407
1.31712
-0.065177
1.57706
-0.0774565
1.88311
-0.0887447
2.24363
-0.0968723
2.66653
-0.0986306
3.16073
-0.092219
3.11951
-0.0813161
2.57147
-0.0687986
2.12617
-0.0563897
1.76207
-0.0450173
1.46269
-0.0348411
1.21277
-0.0250669
0.987932
-0.0148022
0.738997
-0.00513194
0.426058
0.115307
-0.00969093
0.185152
-0.0251036
0.546394
-0.0398515
0.857869
-0.0539362
1.101
-0.0691435
1.33232
-0.0849024
1.59282
-0.100423
1.89863
-0.114056
2.25726
-0.123041
2.67552
-0.123761
3.16145
-0.11475
3.1105
-0.100848
2.55757
-0.085381
2.1107
-0.0701087
1.7468
-0.0557073
1.44828
-0.0423185
1.19938
-0.0296963
0.97531
-0.0173041
0.726605
-0.00602248
0.414776
0.109284
-0.0148731
0.200025
-0.0370452
0.568566
-0.0561474
0.876971
-0.0733317
1.11818
-0.0916327
1.35062
-0.111009
1.6122
-0.129786
1.9174
-0.145314
2.27279
-0.154419
2.68462
-0.153296
3.16033
-0.140862
3.09806
-0.123116
2.53982
-0.103835
2.09142
-0.0850808
1.72805
-0.0680712
1.43127
-0.0529128
1.18422
-0.0382271
0.960624
-0.0225169
0.710895
-0.00766294
0.399922
0.101621
-0.0186398
0.218665
-0.0467441
0.59667
-0.0729707
0.903198
-0.0969206
1.14213
-0.122177
1.37588
-0.146617
1.63664
-0.1686
1.93939
-0.185559
2.28975
-0.194156
2.69322
-0.190221
3.1564
-0.173621
3.08147
-0.151733
2.51793
-0.128685
2.06837
-0.106392
1.70575
-0.085307
1.41019
-0.06538
1.16429
-0.0459377
0.941182
-0.026431
0.691388
-0.00867248
0.382164
0.092949
-0.0334931
0.252158
-0.0729947
0.636172
-0.105975
0.936179
-0.136423
1.17258
-0.166774
1.40623
-0.194967
1.66483
-0.218999
1.96342
-0.235864
2.30662
-0.242045
2.6994
-0.233599
3.14795
-0.211538
3.0594
-0.18445
2.49084
-0.156363
2.04028
-0.129347
1.67874
-0.104551
1.38539
-0.0816791
1.14142
-0.0589761
0.918479
-0.0348246
0.667237
-0.0110994
0.358439
0.0818495
-0.0461957
0.298354
-0.108541
0.698517
-0.155898
0.983536
-0.194772
1.21145
-0.23026
1.44172
-0.260556
1.69512
-0.284274
1.98714
-0.298311
2.32065
-0.299459
2.70055
-0.284395
3.13289
-0.255653
3.03066
-0.223188
2.45838
-0.190779
2.00788
-0.159991
1.64795
-0.1313
1.3567
-0.104129
1.11425
-0.0756126
0.889962
-0.0418718
0.633496
-0.0120886
0.328655
0.0697609
-0.0297196
0.328073
-0.080953
0.74975
-0.127593
1.03018
-0.171285
1.25514
-0.212272
1.48271
-0.251541
1.73439
-0.286661
2.02226
-0.315035
2.34903
-0.332803
2.71832
-0.333125
3.13321
-0.312585
3.01012
-0.279592
2.42539
-0.239961
1.96825
-0.197504
1.60549
-0.154182
1.31338
-0.110973
1.07104
-0.0683828
0.847372
-0.0307081
0.595821
-0.00645445
0.304402
0.0633065
-0.00477591
0.332849
-0.0306543
0.775629
-0.0655686
1.06509
-0.103157
1.29273
-0.140583
1.52013
-0.176052
1.76986
-0.207748
2.05395
-0.23315
2.37443
-0.247907
2.73308
-0.245345
3.13065
-0.222754
2.98753
-0.188871
2.3915
-0.150028
1.9294
-0.110193
1.56566
-0.0721058
1.27529
-0.0372437
1.03618
-0.00842247
0.81855
0.00813529
0.579264
0.00717275
0.305364
0.0704792
0.00409333
0.328756
-0.0111784
0.7909
-0.0367558
1.09067
-0.0664878
1.32246
-0.0971404
1.55079
-0.127325
1.80005
-0.155192
2.08182
-0.177486
2.39672
-0.189803
2.74539
-0.186078
3.12692
-0.164959
2.96641
-0.135482
2.36203
-0.103062
1.89698
-0.0708483
1.53344
-0.0409894
1.24544
-0.0150085
1.0102
0.00433932
0.799203
0.0121445
0.571458
0.00742841
0.31008
0.0779076
0.00553185
0.323224
-0.00383373
0.800266
-0.023555
1.11039
-0.0476637
1.34657
-0.0720635
1.57519
-0.0974163
1.8254
-0.121388
2.10579
-0.140828
2.41616
-0.151638
2.7562
-0.148828
3.12411
-0.130974
2.94856
-0.105844
2.3369
-0.0793163
1.87045
-0.0537986
1.50792
-0.0300728
1.22171
-0.00959652
0.98972
0.00515846
0.784448
0.0098576
0.566759
0.00505429
0.314884
0.0829619
0.00726175
0.315962
0.000565005
0.806963
-0.0169699
1.12792
-0.0370256
1.36663
-0.0578602
1.59602
-0.0797121
1.84725
-0.100593
2.12667
-0.118003
2.43357
-0.128229
2.76643
-0.126641
3.12252
-0.111808
2.93372
-0.0914142
2.3165
-0.0691734
1.84821
-0.0474203
1.48617
-0.027536
1.20183
-0.0110708
0.973255
0.000575587
0.772801
0.00415613
0.563179
0.0020256
0.317014
0.0849875
0.00650591
0.309456
0.00199028
0.811478
-0.0131886
1.1431
-0.0313984
1.38484
-0.050276
1.6149
-0.0696826
1.86666
-0.0884276
2.14542
-0.104369
2.44952
-0.114054
2.77611
-0.113149
3.12162
-0.100166
2.92074
-0.0815865
2.29792
-0.06219
1.82882
-0.0439172
1.4679
-0.0277439
1.18565
-0.0144582
0.959969
-0.00543679
0.76378
-0.000727338
0.558469
-4.88946e-05
0.316336
0.0849386
0.00465271
0.304804
0.00184408
0.814287
-0.0114473
1.15639
-0.0283275
1.40172
-0.0461717
1.63274
-0.0641803
1.88467
-0.0815796
2.16282
-0.0965795
2.46452
-0.106408
2.78594
-0.107108
3.12232
-0.0962052
2.90984
-0.0796403
2.28136
-0.0616733
1.81085
-0.0453313
1.45156
-0.0308391
1.17116
-0.0188093
0.947939
-0.0104374
0.755408
-0.00515876
0.553191
-0.00140983
0.312587
0.0835288
0.0025888
0.302215
0.000396491
0.816479
-0.011491
1.16828
-0.0270039
1.41723
-0.043903
1.64964
-0.0611308
1.9019
-0.0778773
2.17956
-0.0926525
2.47929
-0.103112
2.7964
-0.104419
3.12362
-0.0945606
2.89998
-0.0798544
2.26665
-0.0638464
1.79484
-0.0478556
1.43557
-0.0343825
1.15769
-0.0232821
0.936839
-0.0138714
0.745997
-0.00699604
0.546315
-0.00211966
0.307711
0.0814091
0.000303716
0.301911
-0.00238433
0.819167
-0.0128953
1.17879
-0.0268784
1.43122
-0.0427436
1.66551
-0.0594429
1.91859
-0.0760071
2.19613
-0.0909793
2.49426
-0.102071
2.80749
-0.105262
3.12681
-0.0973696
2.89209
-0.0824916
2.25177
-0.0663977
1.77875
-0.0518808
1.42105
-0.038419
1.14423
-0.0262972
0.924717
-0.0169847
0.736685
-0.00906634
0.538397
-0.00274955
0.301394
0.0786596
-0.00079173
0.302703
-0.00544561
0.823821
-0.014831
1.18818
-0.0275328
1.44392
-0.0423328
1.68031
-0.0584695
1.93473
-0.0750331
2.21269
-0.0905433
2.50977
-0.102967
2.81992
-0.108012
3.13186
-0.101406
2.88548
-0.0883821
2.23875
-0.0726663
1.76303
-0.056452
1.40483
-0.0419893
1.12976
-0.0299263
0.912654
-0.019191
0.725949
-0.0102396
0.529445
-0.00331407
0.294468
0.0753455
-0.00285592
0.305559
-0.00783558
0.828801
-0.0168412
1.19718
-0.0286446
1.45572
-0.0425613
1.69422
-0.0581387
1.95031
-0.0746787
2.22923
-0.0909085
2.526
-0.104856
2.83387
-0.112076
3.13908
-0.108097
2.8815
-0.0952592
2.22591
-0.0786018
1.74638
-0.0624771
1.38871
-0.0482201
1.11551
-0.0354236
0.899858
-0.0236021
0.714128
-0.012516
0.518359
-0.00399582
0.285948
0.0713497
-0.00400036
0.309559
-0.00921764
0.834018
-0.0180888
1.20605
-0.0295254
1.46716
-0.0429453
1.70764
-0.0580898
1.96545
-0.074582
2.24572
-0.0914239
2.54285
-0.106556
2.849
-0.115933
3.14845
-0.113977
2.87955
-0.102833
2.21477
-0.0871193
1.73066
-0.0691538
1.37074
-0.0523357
1.09869
-0.0368898
0.884412
-0.0242218
0.70146
-0.0136689
0.507806
-0.00454681
0.276826
0.0668029
-0.00429931
0.313858
-0.0101612
0.83988
-0.0188792
1.21477
-0.0300846
1.47836
-0.0432242
1.72078
-0.0580742
1.9803
-0.0744697
2.26212
-0.0918048
2.56018
-0.108388
2.86558
-0.120982
3.16105
-0.122127
2.88069
-0.111803
2.20444
-0.0943517
1.71321
-0.0769424
1.35333
-0.0593569
1.0811
-0.0451689
0.870224
-0.0313348
0.687626
-0.0162636
0.492735
-0.00518517
0.265748
0.0616177
-0.00425491
0.318113
-0.0105234
0.846148
-0.0191871
1.22344
-0.030137
1.48931
-0.0430454
1.73369
-0.0576889
1.99495
-0.0740999
2.27853
-0.0920042
2.57808
-0.109907
2.88348
-0.124264
3.17541
-0.127495
2.88392
-0.11928
2.19623
-0.104669
1.6986
-0.0836918
1.33236
-0.0641065
1.06152
-0.0453971
0.851514
-0.0289126
0.671141
-0.0162697
0.480092
-0.00525394
0.254732
0.0563638
-0.00425293
0.322366
-0.0108129
0.852708
-0.0192861
1.23191
-0.0298591
1.49989
-0.0424793
1.74631
-0.0569596
2.00943
-0.0734194
2.29499
-0.0917747
2.59644
-0.110852
2.90256
-0.128087
3.19264
-0.136151
2.89199
-0.130944
2.19102
-0.114391
1.68205
-0.0944535
1.31242
-0.0728185
1.03988
-0.0539059
0.832602
-0.0372694
0.654505
-0.0193302
0.462153
-0.00548485
0.240886
0.0508789
-0.00424201
0.326608
-0.010799
0.859265
-0.0190645
1.24018
-0.0292941
1.51011
-0.0415607
1.75858
-0.0558119
2.02368
-0.0722734
2.31145
-0.0910257
2.61519
-0.111202
2.92274
-0.130772
3.21221
-0.141269
2.90248
-0.139112
2.18887
-0.127665
1.6706
-0.106438
1.29119
-0.0800992
1.01354
-0.052432
0.804935
-0.0311949
0.633267
-0.0161103
0.447069
-0.00409428
0.22887
0.0467847
-0.00419258
0.330801
-0.0106939
0.865767
-0.018651
1.24813
-0.02852
1.51998
-0.0404084
1.77047
-0.054372
2.03764
-0.0707517
2.32783
-0.0897711
2.63421
-0.110987
2.94395
-0.132955
3.23418
-0.147529
2.91706
-0.147988
2.18932
-0.135194
1.65781
-0.114588
1.27059
-0.0881684
0.987123
-0.0625186
0.779285
-0.0369788
0.607728
-0.0154569
0.425547
-0.00315526
0.216569
0.0436294
-0.00403311
0.334834
-0.0103646
0.872098
-0.0180733
1.25584
-0.0275836
1.52949
-0.0390526
1.78194
-0.0526565
2.05125
-0.068838
2.34401
-0.0879436
2.65332
-0.109764
2.96577
-0.133065
3.25748
-0.149808
2.9338
-0.154661
2.19418
-0.150077
1.65322
-0.131203
1.25171
-0.10221
0.95813
-0.0615578
0.738633
-0.0206762
0.566846
0.00730086
0.39757
0.0161485
0.207721
0.0597779
-0.00378879
0.338623
-0.00995233
0.878262
-0.0173531
1.26324
-0.0264817
1.53862
-0.0375346
1.79299
-0.0507463
2.06446
-0.0666476
2.35991
-0.0857596
2.67243
-0.108247
2.98826
-0.133837
3.28307
-0.155298
2.95526
-0.165656
2.20453
-0.159295
1.64686
-0.142994
1.23541
-0.113881
0.929018
-0.0752789
0.70003
-0.0220292
0.513596
0.0189127
0.356628
0.0125019
0.214132
0.0722798
-0.00349077
0.342113
-0.0094195
0.88419
-0.0165404
1.27036
-0.0252634
1.54735
-0.0359064
1.80363
-0.0486862
2.07724
-0.0642603
2.37549
-0.0832471
2.69142
-0.106102
3.01111
-0.132663
3.30963
-0.155455
2.97806
-0.169012
2.21809
-0.173739
1.65159
-0.163415
1.22509
-0.137293
0.902896
-0.0845338
0.647271
0.00732009
0.421743
0.119297
0.244651
0.154867
0.178561
0.227147
-0.0032617
0.345375
-0.00906198
0.889991
-0.0160489
1.27735
-0.0246937
1.55599
-0.0354247
1.81436
-0.0485135
2.09033
-0.064812
2.39179
-0.0851598
2.71176
-0.110576
3.03653
-0.141676
3.34073
-0.171126
3.00751
-0.193089
2.24005
-0.199807
1.65831
-0.192806
1.21809
-0.171653
0.881743
-0.148249
0.623868
-0.168197
0.441691
-0.374532
0.450986
-0.905026
0.709055
0.884937
-1.56282
-0.00306489
0.34844
-0.00856636
0.895492
-0.0153282
1.28411
-0.0237474
1.56441
-0.0342871
1.8249
-0.0473422
2.10338
-0.0638799
2.40832
-0.0849703
2.73285
-0.112019
3.06358
-0.146502
3.37522
-0.181709
3.04271
-0.209015
2.26736
-0.235196
1.68449
-0.249195
1.23209
-0.260536
0.893084
-0.336258
0.699589
-0.67903
0.784463
-1.37075
1.1427
-1.98927
1.32757
1.22449
-2.32882
-0.00287222
0.351312
-0.00805581
0.900676
-0.0145275
1.29058
-0.0226919
1.57257
-0.0330298
1.83524
-0.0460222
2.11637
-0.0627525
2.42505
-0.0844838
2.75459
-0.113075
3.09217
-0.150947
3.41309
-0.190911
3.08268
-0.227868
2.30432
-0.257332
1.71395
-0.277967
1.25272
-0.366404
0.981522
-0.729109
1.06229
-1.47097
1.52632
-2.06717
1.7389
-2.31744
1.57784
1.34426
-2.43721
-0.00259125
0.353904
-0.00744256
0.905527
-0.0136296
1.29677
-0.0215103
1.58045
-0.0315876
1.84532
-0.0444718
2.12926
-0.0613194
2.4419
-0.0835781
2.77684
-0.113595
3.12219
-0.154984
3.45448
-0.203169
3.13086
-0.245496
2.34664
-0.293635
1.76209
-0.386955
1.34604
-0.688888
1.28346
-1.38248
1.75588
-1.99113
2.13498
-2.24108
1.98885
-2.3604
1.69717
1.41296
-2.42911
-0.00231523
0.356219
-0.00680445
0.910016
-0.0126573
1.30262
-0.0202137
1.58801
-0.0300682
1.85517
-0.0427879
2.14198
-0.059656
2.45877
-0.0823687
2.79956
-0.113764
3.15358
-0.157959
3.49867
-0.210211
3.18311
-0.266008
2.40244
-0.326609
1.82269
-0.491441
1.51087
-1.03683
1.82884
-1.73321
2.45226
-2.08063
2.4824
-2.23988
2.1481
-2.32791
1.7852
1.48149
-2.39643
-0.00212673
0.358346
-0.00642967
0.914319
-0.0122367
1.30843
-0.0197628
1.59554
-0.0297408
1.86515
-0.0425949
2.15483
-0.0598164
2.47599
-0.0832211
2.82296
-0.115991
3.18635
-0.163364
3.54604
-0.223242
3.24299
-0.278659
2.45786
-0.371214
1.91525
-0.72496
1.86462
-1.43062
2.5345
-1.93473
2.95637
-2.14656
2.69423
-2.25931
2.26085
-2.33923
1.86513
1.54832
-2.40606
-0.00205986
0.360405
-0.00651006
0.918769
-0.0125746
1.31449
-0.0204187
1.60338
-0.0307932
1.87553
-0.0441219
2.16816
-0.0619723
2.49384
-0.0863537
2.84734
-0.12082
3.22082
-0.171401
3.59662
-0.235853
3.30744
-0.312219
2.53422
-0.490058
2.09308
-0.984567
2.35913
-1.6197
3.16963
-1.92728
3.26395
-2.08466
2.85161
-2.20565
2.38184
-2.3027
1.96218
1.61527
-2.36965
-0.00187373
0.362279
-0.00641658
0.923312
-0.0127992
1.32088
-0.0210123
1.61159
-0.0317698
1.88628
-0.0456153
2.18201
-0.0641332
2.51236
-0.0894918
2.8727
-0.125501
3.25683
-0.178671
3.64979
-0.245631
3.3744
-0.329793
2.61838
-0.585862
2.34915
-1.1911
2.96437
-1.71169
3.69021
-1.93074
3.483
-2.08315
3.00402
-2.2216
2.52028
-2.34517
2.08575
1.68136
-2.41127
-0.00169544
0.363975
-0.00639849
0.928015
-0.0130789
1.32756
-0.0216579
1.62017
-0.0328349
1.89746
-0.0471661
2.19634
-0.0663109
2.5315
-0.0926088
2.899
-0.130211
3.29443
-0.186453
3.70604
-0.262846
3.4508
-0.38908
2.74462
-0.723975
2.68405
-1.33064
3.57103
-1.72233
4.08191
-1.91381
3.67448
-2.03337
3.12358
-2.14106
2.62798
-2.22147
2.16616
1.67861
-2.21872
-0.00134535
0.36532
-0.00601022
0.93268
-0.0130045
1.33455
-0.0220154
1.62918
-0.0336339
1.90908
-0.048475
2.21118
-0.0682192
2.55125
-0.0953394
2.92612
-0.13423
3.33332
-0.19221
3.76401
-0.268739
3.52733
-0.415267
2.89115
-0.822348
3.09113
-1.38686
4.13554
-1.67774
4.37279
-1.86049
3.85722
-1.97208
3.23518
-1.98657
2.64247
-1.94321
2.1228
1.68104
-1.94564
-0.00103037
0.36635
-0.00577511
0.937425
-0.0129173
1.34169
-0.0222964
1.63856
-0.0341985
1.92098
-0.0492143
2.22619
-0.0691049
2.57114
-0.0962686
2.95328
-0.135106
3.37216
-0.193499
3.82241
-0.279978
3.61381
-0.464909
3.07608
-0.88908
3.5153
-1.3504
4.59686
-1.55139
4.57378
-1.63962
3.94545
-1.66345
3.25901
-1.53375
2.51276
-1.05129
1.64035
0.629748
-0.000470179
0.36682
-0.00475733
0.941712
-0.0121953
1.34913
-0.0222017
1.64857
-0.0347712
1.93355
-0.050701
2.24212
-0.0719502
2.59239
-0.101042
2.98238
-0.143032
3.41415
-0.205974
3.88535
-0.29897
3.7068
-0.515129
3.29224
-0.998288
3.99846
-1.39959
4.99817
-1.52158
4.69577
-1.53803
3.96189
-1.45858
3.17956
-1.24044
2.29462
-0.679807
1.07972
-0.0500599
8.48562e-05
0.366736
-0.00387089
0.945668
-0.0114784
1.35674
-0.0219571
1.65905
-0.0350009
1.94659
-0.0517101
2.25883
-0.0741097
2.61479
-0.104883
3.01315
-0.14964
3.45891
-0.219399
3.95511
-0.332039
3.81944
-0.588531
3.54873
-1.09558
4.50551
-1.4118
5.31439
-1.49633
4.7803
-1.49084
3.95641
-1.3153
3.00402
-0.84133
1.82065
-0.140098
0.378484
-0.190158
0.0013293
0.365406
-0.00159722
0.948594
-0.00979922
1.36494
-0.0206843
1.66993
-0.0341077
1.96002
-0.0515428
2.27627
-0.075164
2.63841
-0.107669
3.04565
-0.155291
3.50653
-0.228701
4.02852
-0.352388
3.94313
-0.647815
3.84416
-1.15971
5.0174
-1.38326
5.53793
-1.42772
4.82476
-1.37444
3.90314
-1.10513
2.7347
-0.396381
1.1119
0.0278283
-0.0457254
-0.16233
0.00221728
0.363189
0.000243599
0.950568
-0.00794372
1.37313
-0.0189061
1.6809
-0.0325259
1.97364
-0.0504993
2.29424
-0.0746343
2.66254
-0.107704
3.07872
-0.15607
3.55489
-0.235356
4.10781
-0.375683
4.08346
-0.702525
4.171
-1.1847
5.49958
-1.33896
5.69219
-1.35684
4.84264
-1.21716
3.76345
-0.795388
2.31293
-0.126065
0.44258
0.031937
-0.203728
-0.130393
0.00366159
0.359527
0.00267887
0.951551
-0.00468547
1.38049
-0.0154058
1.69162
-0.0291137
1.98734
-0.047401
2.31253
-0.0718124
2.68695
-0.105599
3.11251
-0.155677
3.60497
-0.240188
4.19232
-0.396757
4.24002
-0.743322
4.51756
-1.16301
5.91927
-1.26514
5.79432
-1.25348
4.83099
-1.01581
3.52579
-0.455326
1.75245
-0.00825528
-0.00449013
0.0228969
-0.23488
-0.107496
0.00501462
0.354513
0.0054134
0.951152
-0.000912785
1.38682
-0.010942
1.70165
-0.0244912
2.00089
-0.042624
2.33066
-0.0666511
2.71098
-0.100485
3.14634
-0.14941
3.6539
-0.230446
4.27335
-0.391971
4.40155
-0.745564
4.87116
-1.0841
6.25781
-1.16416
5.87438
-1.12193
4.78875
-0.834895
3.23875
-0.212886
1.13044
-0.0153348
-0.202041
-0.000961057
-0.249253
-0.108457
0.00739448
0.347118
0.0101759
0.948371
0.00554953
1.39145
-0.0035625
1.71076
-0.0170549
2.01439
-0.0342774
2.34788
-0.056561
2.73327
-0.0879514
3.17773
-0.132989
3.69894
-0.210843
4.35121
-0.385797
4.5765
-0.727559
5.21292
-0.979351
6.5096
-1.03565
5.93068
-0.936698
4.6898
-0.576702
2.87876
-0.0167747
0.570509
0.0216942
-0.24051
0.0167637
-0.244323
-0.0916931
0.00974075
0.337378
0.0152481
0.942863
0.0123769
1.39432
0.00464674
1.71849
-0.00762446
2.02666
-0.0224513
2.36271
-0.0425855
2.7534
-0.0734807
3.20863
-0.11874
3.7442
-0.19101
4.42347
-0.353463
4.73896
-0.628269
5.48772
-0.812521
6.69385
-0.880108
5.99827
-0.823999
4.63369
-0.440617
2.49537
-0.0721221
0.202014
-0.0527885
-0.259843
-0.0146483
-0.282463
-0.106341
0.0133091
0.324069
0.0228916
0.933281
0.0224342
1.39477
0.0162387
1.72468
0.006845
2.03605
-0.00534643
2.3749
-0.0232803
2.77133
-0.0500174
3.23537
-0.0916135
3.78579
-0.146041
4.4779
-0.288681
4.8816
-0.502067
5.70111
-0.641294
6.83308
-0.724226
6.0812
-0.761632
4.6711
-0.602462
2.33621
-0.515377
0.114928
-0.371413
-0.403808
-0.188203
-0.465673
-0.294544
0.0163067
0.307762
0.0301741
0.919413
0.0336856
1.39126
0.0313019
1.72707
0.0251876
2.04217
0.0159267
2.38416
0.00347465
2.78379
-0.0127783
3.25162
-0.0387297
3.81174
-0.0716839
4.51086
-0.160325
4.97024
-0.268508
5.80929
-0.353941
6.91851
-0.426529
6.15379
-0.49564
4.74021
-0.586819
2.42738
-0.719189
0.247299
-0.566404
-0.556593
-0.296386
-0.73569
-0.590931
0.0206844
0.287077
0.0409429
0.899155
0.049594
1.38261
0.0513378
1.72532
0.0489255
2.04458
0.0464593
2.38663
0.0412626
2.78898
0.0321928
3.26069
0.019897
3.82404
-0.00515311
4.53591
-0.0142409
4.97933
0.0127477
5.78231
0.0249468
6.90631
0.0529318
6.1258
0.0610532
4.73208
-0.0986412
2.58708
-0.468844
0.617501
-0.549541
-0.475896
-0.281365
-1.00387
-0.872296
0.024122
0.262955
0.0509505
0.872326
0.0662617
1.3673
0.0739509
1.71763
0.07795
2.04058
0.0824265
2.38215
0.0852532
2.78616
0.0839077
3.26203
0.0783513
3.8296
0.0673173
4.54694
0.136726
4.90992
0.364349
5.55468
0.630555
6.6401
0.982257
5.7741
1.26708
4.44726
1.03937
2.81479
0.552665
1.10421
0.122896
-0.0461269
-0.0168727
-0.864097
-0.889169
0.0280479
0.234908
0.0638431
0.836531
0.0871294
1.34401
0.101924
1.70284
0.113941
2.02856
0.126148
2.36995
0.140568
2.77174
0.150194
3.25241
0.153312
3.82648
0.139718
4.56053
0.281577
4.76806
0.746479
5.08978
1.15482
6.23176
1.47701
5.45191
1.63888
4.28539
1.49742
2.95624
1.13179
1.46984
0.765558
0.320106
0.302558
-0.401097
-0.586611
0.0299646
0.204943
0.074246
0.79225
0.107897
1.31036
0.132641
1.6781
0.156247
2.00495
0.180685
2.34551
0.210217
2.7422
0.237754
3.22487
0.265998
3.79823
0.262179
4.56435
0.385902
4.64434
0.853021
4.62266
1.31455
5.77024
1.59419
5.17227
1.73798
4.1416
1.67898
3.01524
1.29015
1.85867
0.815316
0.794938
0.361518
0.0527017
-0.225093
0.0323607
0.172582
0.0849014
0.739709
0.130187
1.26508
0.168104
1.64018
0.20545
1.96761
0.247037
2.30392
0.296209
2.69303
0.350925
3.17016
0.414633
3.73453
0.459927
4.51906
0.501825
4.60244
0.76362
4.36087
1.25451
5.27935
1.4878
4.93898
1.57992
4.04948
1.46427
3.13089
1.15575
2.16719
0.752134
1.19855
0.321388
0.483448
0.0962944
0.0331056
0.139477
0.0928934
0.679921
0.151026
1.20694
0.203704
1.5875
0.258163
1.91315
0.320727
2.24136
0.396452
2.61731
0.495332
3.07128
0.632636
3.59722
0.783299
4.3684
0.774397
4.61134
0.757638
4.37762
1.05514
4.98185
1.14127
4.85285
1.13907
4.05168
1.05319
3.21677
0.862626
2.35776
0.54869
1.51249
0.231718
0.80042
0.328012
0.0357312
0.103745
0.0964818
0.61917
0.165395
1.13803
0.235809
1.51709
0.310105
1.83885
0.397643
2.15382
0.512061
2.50289
0.683252
2.90009
0.94213
3.33834
1.18694
4.12358
1.14076
4.65752
0.905101
4.61329
0.90805
4.9789
0.90865
4.85225
0.878563
4.08177
0.772315
3.32302
0.55975
2.57032
0.346736
1.7255
0.134616
1.01254
0.462628
0.0389072
0.0648382
0.101959
0.556119
0.177053
1.06294
0.261432
1.43271
0.358034
1.74225
0.477548
2.03431
0.641232
2.3392
0.89256
2.64876
1.235
2.9959
1.55853
3.80006
1.58635
4.62969
1.22061
4.97902
1.02684
5.17267
0.913496
4.96559
0.709562
4.28571
0.468619
3.56396
0.284148
2.75479
0.196117
1.81354
0.063844
1.14481
0.526472
0.0401367
0.0247015
0.117944
0.478312
0.199047
0.981834
0.288387
1.34337
0.396736
1.6339
0.53052
1.90052
0.714544
2.15518
0.979296
2.38401
1.32268
2.65251
1.73118
3.39156
1.82738
4.5335
1.42048
5.38592
1.04572
5.54743
0.716676
5.29464
0.36939
4.63299
0.151839
3.78151
0.125526
2.7811
0.0930171
1.84604
0.0179617
1.21987
0.544434
0.0250498
-0.000348313
0.082533
0.420829
0.148292
0.916075
0.226932
1.26473
0.319406
1.54143
0.4211
1.79883
0.538024
2.03825
0.666458
2.25557
0.809125
2.50985
0.978513
3.22217
0.954599
4.55741
0.605535
5.73499
0.249781
5.90319
0.0269933
5.51742
-0.128295
4.78828
-0.13258
3.7858
-0.0246454
2.67317
-0.00484366
1.82624
-0.0121528
1.22718
0.532281
-0.00182071
0.00147239
0.0091218
0.409886
0.03309
0.892107
0.0721964
1.22562
0.124034
1.48959
0.181943
1.74092
0.230649
1.98955
0.25649
2.22973
0.254581
2.51176
0.17379
3.30296
0.0279958
4.7032
-0.325074
6.08806
-0.550558
6.12867
-0.596225
5.56309
-0.522926
4.71498
-0.340666
3.60354
-0.150358
2.48286
-0.084814
1.7607
-0.0447219
1.18709
0.487559
-0.0197412
0.0212135
-0.0353041
0.425449
-0.0436645
0.900467
-0.0416514
1.22361
-0.0368711
1.48481
-0.0394628
1.74351
-0.0681426
2.01823
-0.140111
2.3017
-0.283357
2.655
-0.520928
3.54054
-0.845949
5.02822
-1.09086
6.33297
-1.10551
6.14332
-0.955663
5.41325
-0.647734
4.40705
-0.346968
3.30277
-0.169004
2.3049
-0.101472
1.69317
-0.0534608
1.13907
0.434098
-0.0283959
0.0496095
-0.0632458
0.460299
-0.0923082
0.92953
-0.121329
1.25263
-0.158607
1.52209
-0.214417
1.79932
-0.307798
2.11161
-0.464709
2.45861
-0.715725
2.90602
-1.05612
3.88093
-1.40309
5.3752
-1.45011
6.37998
-1.28699
5.9802
-0.998451
5.12471
-0.5675
3.9761
-0.261625
2.9969
-0.138977
2.18225
-0.0913267
1.64552
-0.0465588
1.09431
0.38754
-0.0327443
0.0823537
-0.0791247
0.50668
-0.120076
0.970482
-0.168558
1.30111
-0.235309
1.58884
-0.327906
1.89192