/*--------------------------------*- C++ -*----------------------------------*\
| =========                 |                                                 |
| \\      /  F ield         | OpenFOAM: The Open Source CFD Toolbox           |
|  \\    /   O peration     | Version:  v2012                                 |
|   \\  /    A nd           | Website:  www.openfoam.com                      |
|    \\/     M anipulation  |                                                 |
\*---------------------------------------------------------------------------*/
FoamFile
{
    version     2.0;
    format      ascii;
    class       volVectorField;
    location    "16";
    object      U;
}
// * * * * * * * * * * * * * * * * * * * * * * * * * * * * * * * * * * * * * //

dimensions      [0 1 -1 0 0 0 0];


internalField   nonuniform List<vector> 
2200
(
(0.878472 -0.0303148 0)
(1.00564 -0.0512803 0)
(1.0029 -0.0352767 0)
(0.999937 -0.0242366 0)
(0.999457 -0.0163544 0)
(0.999761 -0.0104602 0)
(1.00011 -0.0065535 0)
(1.00032 -0.00389801 0)
(1.00031 -0.00205077 0)
(1.00014 -0.000646583 0)
(1.00009 0.000771938 0)
(1.00033 0.00226794 0)
(1.00035 0.0040984 0)
(1.00013 0.00673724 0)
(0.999765 0.0105744 0)
(0.999453 0.0164436 0)
(0.999949 0.0243006 0)
(1.00294 0.0353318 0)
(1.00564 0.0512945 0)
(0.878466 0.0303345 0)
(0.712882 -0.0327401 0)
(0.996813 -0.0627023 0)
(1.03415 -0.0559251 0)
(1.02565 -0.0461574 0)
(1.01643 -0.0357315 0)
(1.00968 -0.0257708 0)
(1.00555 -0.017825 0)
(1.00324 -0.0115686 0)
(1.00205 -0.00631982 0)
(1.00193 -0.00185274 0)
(1.00184 0.00254215 0)
(1.00202 0.00688569 0)
(1.00316 0.0120318 0)
(1.00538 0.0181488 0)
(1.00954 0.026092 0)
(1.01632 0.0360019 0)
(1.02553 0.0463812 0)
(1.03398 0.0560703 0)
(0.996693 0.0628479 0)
(0.712734 0.0327665 0)
(0.536106 -0.0238807 0)
(0.970504 -0.0566652 0)
(1.05593 -0.0541918 0)
(1.05215 -0.0485848 0)
(1.03669 -0.04053 0)
(1.0248 -0.0323651 0)
(1.01604 -0.0240275 0)
(1.01039 -0.0159394 0)
(1.00725 -0.00880789 0)
(1.00588 -0.00245355 0)
(1.0059 0.0034462 0)
(1.00715 0.00972176 0)
(1.01019 0.0167156 0)
(1.01589 0.0248014 0)
(1.02466 0.0329971 0)
(1.03654 0.0410714 0)
(1.05197 0.0490239 0)
(1.05572 0.0545693 0)
(0.970053 0.0568787 0)
(0.53546 0.0239482 0)
(0.394428 -0.0131231 0)
(0.913044 -0.0453989 0)
(1.05823 -0.0459013 0)
(1.06874 -0.0425688 0)
(1.05407 -0.0367362 0)
(1.03909 -0.0306346 0)
(1.02756 -0.024137 0)
(1.0192 -0.0169991 0)
(1.01399 -0.00974573 0)
(1.01146 -0.00261367 0)
(1.01131 0.00410453 0)
(1.01367 0.0112025 0)
(1.01887 0.0183357 0)
(1.02716 0.025231 0)
(1.03861 0.0315999 0)
(1.05356 0.0375007 0)
(1.06814 0.0431619 0)
(1.05744 0.0463315 0)
(0.911945 0.0456522 0)
(0.393167 0.0131911 0)
(0.314122 -0.00392019 0)
(0.852107 -0.0308338 0)
(1.05124 -0.0372842 0)
(1.07951 -0.0354184 0)
(1.06749 -0.0304632 0)
(1.05138 -0.0254312 0)
(1.03791 -0.0206843 0)
(1.0274 -0.0154416 0)
(1.02026 -0.00944777 0)
(1.01645 -0.00255785 0)
(1.01632 0.0045654 0)
(1.01992 0.0112749 0)
(1.0268 0.0170341 0)
(1.03716 0.0220963 0)
(1.05055 0.026539 0)
(1.06657 0.0314058 0)
(1.0785 0.0361896 0)
(1.04999 0.0378709 0)
(0.850259 0.0311431 0)
(0.312276 0.00398242 0)
(0.273559 0.000428102 0)
(0.797349 -0.0185216 0)
(1.03732 -0.028998 0)
(1.08484 -0.0292196 0)
(1.07702 -0.0253796 0)
(1.06037 -0.020671 0)
(1.04717 -0.0164169 0)
(1.03669 -0.0121486 0)
(1.02864 -0.00740784 0)
(1.02391 -0.00183276 0)
(1.02374 0.00451058 0)
(1.02812 0.00975532 0)
(1.03584 0.0141788 0)
(1.04612 0.0181334 0)
(1.05922 0.0222231 0)
(1.07587 0.026685 0)
(1.08346 0.0303145 0)
(1.03531 0.0298228 0)
(0.794332 0.0188983 0)
(0.271006 -0.000348782 0)
(0.25317 0.00147801 0)
(0.751145 -0.0099327 0)
(1.01905 -0.0213285 0)
(1.08531 -0.0228971 0)
(1.08252 -0.020683 0)
(1.06644 -0.0169307 0)
(1.05297 -0.0133452 0)
(1.04249 -0.00963814 0)
(1.03465 -0.00543267 0)
(1.03024 -0.000918212 0)
(1.02989 0.00439598 0)
(1.03373 0.00868909 0)
(1.04118 0.0125782 0)
(1.05146 0.0159488 0)
(1.06477 0.0190194 0)
(1.08064 0.0223924 0)
(1.08308 0.0242382 0)
(1.01585 0.0222449 0)
(0.746594 0.0103379 0)
(0.249785 -0.00136065 0)
(0.245439 0.00130709 0)
(0.718672 -0.00370504 0)
(1.00089 -0.0129137 0)
(1.08183 -0.0150305 0)
(1.08372 -0.0147117 0)
(1.06862 -0.0128683 0)
(1.05472 -0.0108545 0)
(1.04407 -0.00797367 0)
(1.03657 -0.00425084 0)
(1.03265 -0.000113434 0)
(1.03216 0.00446539 0)
(1.03533 0.00835755 0)
(1.04227 0.0116197 0)
(1.05239 0.0137385 0)
(1.06606 0.015263 0)
(1.0809 0.0166648 0)
(1.07845 0.0165139 0)
(0.996282 0.0138767 0)
(0.712852 0.00413777 0)
(0.241084 -0.00119415 0)
(0.244979 0.000955094 0)
(0.701949 -9.41585e-05 0)
(0.986811 -0.00566933 0)
(1.07639 -0.00784727 0)
(1.08223 -0.00882744 0)
(1.0687 -0.00876897 0)
(1.05515 -0.00823246 0)
(1.04518 -0.00622239 0)
(1.03806 -0.0032033 0)
(1.03417 0.000686923 0)
(1.0336 0.00474347 0)
(1.03655 0.008195 0)
(1.04305 0.0105832 0)
(1.05237 0.0118981 0)
(1.06562 0.011855 0)
(1.07853 0.0112435 0)
(1.07191 0.00971086 0)
(0.980743 0.00693069 0)
(0.694348 0.000692586 0)
(0.239551 -0.000774753 0)
(0.247223 0.000511594 0)
(0.696104 0.000749388 0)
(0.978196 -0.00211813 0)
(1.07202 -0.00422648 0)
(1.08096 -0.00558383 0)
(1.06985 -0.00628056 0)
(1.05777 -0.0060137 0)
(1.0484 -0.00456881 0)
(1.04147 -0.00211694 0)
(1.03739 0.00148149 0)
(1.03649 0.00512623 0)
(1.03909 0.00823794 0)
(1.04503 0.0100568 0)
(1.05399 0.0108818 0)
(1.06515 0.0102139 0)
(1.07583 0.00873923 0)
(1.06605 0.00665378 0)
(0.970446 0.0037336 0)
(0.686404 -1.34474e-05 0)
(0.240287 -0.000272903 0)
(0.249084 6.78671e-05 0)
(0.694527 0.000556715 0)
(0.973856 -0.000979925 0)
(1.06864 -0.00305974 0)
(1.07944 -0.00456204 0)
(1.07027 -0.00521933 0)
(1.06043 -0.00496443 0)
(1.05248 -0.00331077 0)
(1.04644 -0.000856698 0)
(1.04252 0.00268084 0)
(1.04126 0.00607853 0)
(1.0431 0.00895354 0)
(1.04765 0.0104518 0)
(1.05409 0.011001 0)
(1.06407 0.0101847 0)
(1.07257 0.00853587 0)
(1.06053 0.00614933 0)
(0.963044 0.00305238 0)
(0.682112 0.000451902 0)
(0.24021 5.85468e-05 0)
(0.250114 5.91644e-05 0)
(0.694491 0.00062774 0)
(0.969724 -0.000189273 0)
(1.06455 -0.0022078 0)
(1.07676 -0.00382802 0)
(1.06963 -0.00466051 0)
(1.06113 -0.00419632 0)
(1.05424 -0.0024063 0)
(1.04893 0.000296006 0)
(1.04527 0.00395133 0)
(1.04388 0.00735456 0)
(1.045 0.0101594 0)
(1.04823 0.0113619 0)
(1.05369 0.0114121 0)
(1.06174 0.01062 0)
(1.06771 0.00853037 0)
(1.0539 0.00577909 0)
(0.956127 0.0026446 0)
(0.678098 0.000651878 0)
(0.238994 0.000137621 0)
(0.251686 0.000295 0)
(0.695139 0.000897534 0)
(0.966379 0.000991919 0)
(1.06015 -0.000503709 0)
(1.07348 -0.00195283 0)
(1.06848 -0.0029359 0)
(1.06133 -0.00240104 0)
(1.05526 -0.000779965 0)
(1.05025 0.00183533 0)
(1.04649 0.00526865 0)
(1.04478 0.00851121 0)
(1.04539 0.0109979 0)
(1.04798 0.0119025 0)
(1.0525 0.0118909 0)
(1.05807 0.0106318 0)
(1.06181 0.00812955 0)
(1.04648 0.00512479 0)
(0.949396 0.00212799 0)
(0.674399 0.000580729 0)
(0.237458 0.00013802 0)
(0.253949 0.000328667 0)
(0.697049 0.00113788 0)
(0.965833 0.00198976 0)
(1.05711 0.000918422 0)
(1.0716 1.64544e-05 0)
(1.06841 -0.000623408 0)
(1.06296 4.84405e-05 0)
(1.05776 0.00161592 0)
(1.05304 0.0041338 0)
(1.04901 0.00722557 0)
(1.04667 0.010104 0)
(1.0465 0.0119392 0)
(1.04803 0.0124818 0)
(1.05117 0.0118317 0)
(1.05479 0.0101448 0)
(1.0564 0.00759101 0)
(1.03974 0.0046889 0)
(0.943734 0.00203745 0)
(0.671359 0.000702618 0)
(0.236115 0.000180499 0)
(0.256977 0.000324423 0)
(0.701241 0.00145829 0)
(0.966521 0.00246177 0)
(1.05597 0.00246906 0)
(1.0707 0.00212633 0)
(1.06898 0.00207257 0)
(1.065 0.00290051 0)
(1.06067 0.00448351 0)
(1.05627 0.00685697 0)
(1.05199 0.00961071 0)
(1.04881 0.0120285 0)
(1.04755 0.0131554 0)
(1.04777 0.0131799 0)
(1.04949 0.0119873 0)
(1.05141 0.0101587 0)
(1.05137 0.00767325 0)
(1.03374 0.00501664 0)
(0.938438 0.00258678 0)
(0.667683 0.00111021 0)
(0.234075 0.000287902 0)
(0.259951 0.000359149 0)
(0.705019 0.00161667 0)
(0.968328 0.00291122 0)
(1.05661 0.003406 0)
(1.07123 0.00372544 0)
(1.07019 0.00443362 0)
(1.06693 0.00584842 0)
(1.06307 0.00780045 0)
(1.05875 0.0102698 0)
(1.05414 0.0128069 0)
(1.0502 0.014662 0)
(1.04786 0.0150632 0)
(1.04702 0.014283 0)
(1.04728 0.0126791 0)
(1.04793 0.0104258 0)
(1.04665 0.00783494 0)
(1.02834 0.00528719 0)
(0.933447 0.00303725 0)
(0.663554 0.00141742 0)
(0.231403 0.000347434 0)
(0.264333 0.000520432 0)
(0.711668 0.00216689 0)
(0.972317 0.00413474 0)
(1.05827 0.00533698 0)
(1.07287 0.00639586 0)
(1.0723 0.00764894 0)
(1.06938 0.00935067 0)
(1.06556 0.0115367 0)
(1.06092 0.0140435 0)
(1.05558 0.0163917 0)
(1.05054 0.0176877 0)
(1.04687 0.0174128 0)
(1.04492 0.0158677 0)
(1.04391 0.0138692 0)
(1.04351 0.0113545 0)
(1.04139 0.00875525 0)
(1.02262 0.00623064 0)
(0.927668 0.00385873 0)
(0.6579 0.00180221 0)
(0.227804 0.000431355 0)
(0.268979 0.000667943 0)
(0.717749 0.00260117 0)
(0.977067 0.00503092 0)
(1.06181 0.00683348 0)
(1.07594 0.00880106 0)
(1.07534 0.0109278 0)
(1.07236 0.0134901 0)
(1.06829 0.0162155 0)
(1.06305 0.0189506 0)
(1.05671 0.0211518 0)
(1.05036 0.0218336 0)
(1.04542 0.0207501 0)
(1.04236 0.0184648 0)
(1.04047 0.0156938 0)
(1.03925 0.0126283 0)
(1.0364 0.00964921 0)
(1.01694 0.00684795 0)
(0.921364 0.00436314 0)
(0.651587 0.0021078 0)
(0.223707 0.000503854 0)
(0.276414 0.00089153 0)
(0.728698 0.00364222 0)
(0.985009 0.00699944 0)
(1.06716 0.00973498 0)
(1.08063 0.0121107 0)
(1.07987 0.0149389 0)
(1.07657 0.0180215 0)
(1.0719 0.0213677 0)
(1.06572 0.0245466 0)
(1.05798 0.0267757 0)
(1.04996 0.0269616 0)
(1.04348 0.0250345 0)
(1.03909 0.0219679 0)
(1.03609 0.018488 0)
(1.03396 0.0150288 0)
(1.03047 0.011761 0)
(1.01052 0.00874058 0)
(0.914236 0.00576758 0)
(0.64365 0.00273274 0)
(0.218422 0.000634098 0)
(0.284326 0.00118233 0)
(0.739479 0.00432331 0)
(0.99372 0.00840755 0)
(1.07426 0.0118648 0)
(1.08697 0.0156295 0)
(1.0857 0.0196199 0)
(1.08167 0.0238408 0)
(1.07595 0.0280625 0)
(1.0683 0.0317345 0)
(1.05867 0.0340028 0)
(1.04859 0.0336205 0)
(1.04038 0.0307385 0)
(1.03466 0.0267403 0)
(1.03072 0.0223408 0)
(1.02791 0.0180229 0)
(1.02379 0.013983 0)
(1.00274 0.0101726 0)
(0.904635 0.00668786 0)
(0.633435 0.00323535 0)
(0.212054 0.000770735 0)
(0.296881 0.00155839 0)
(0.756761 0.00626405 0)
(1.00671 0.0117036 0)
(1.08378 0.0164212 0)
(1.09523 0.0206044 0)
(1.09317 0.0256176 0)
(1.08807 0.0308534 0)
(1.08091 0.0359827 0)
(1.07137 0.0403515 0)
(1.05945 0.0426787 0)
(1.04697 0.0416965 0)
(1.0368 0.0377712 0)
(1.02956 0.0325947 0)
(1.02449 0.027121 0)
(1.02086 0.0219377 0)
(1.01605 0.0172368 0)
(0.994275 0.0130252 0)
(0.894909 0.00874798 0)
(0.622186 0.00416441 0)
(0.204265 0.000932386 0)
(0.310992 0.00216994 0)
(0.77632 0.00732155 0)
(1.02215 0.0142931 0)
(1.09616 0.0202419 0)
(1.10633 0.02657 0)
(1.10284 0.0333833 0)
(1.0961 0.0400435 0)
(1.08671 0.0464929 0)
(1.07455 0.0515848 0)
(1.05961 0.053903 0)
(1.04415 0.0521023 0)
(1.03157 0.0469077 0)
(1.02254 0.0404216 0)
(1.01617 0.0336793 0)
(1.0116 0.0272882 0)
(1.00593 0.0212788 0)
(0.982333 0.0155407 0)
(0.879585 0.0102314 0)
(0.605536 0.00485525 0)
(0.194395 0.00112744 0)
(0.33254 0.003106 0)
(0.803356 0.0115261 0)
(1.04301 0.0202703 0)
(1.11205 0.0281976 0)
(1.12005 0.035282 0)
(1.11478 0.0438243 0)
(1.10562 0.0520829 0)
(1.0934 0.0596874 0)
(1.07795 0.0652377 0)
(1.05946 0.0672362 0)
(1.04066 0.0642728 0)
(1.0255 0.0574629 0)
(1.01463 0.0492703 0)
(1.00696 0.0409375 0)
(1.00137 0.0330574 0)
(0.994709 0.0260998 0)
(0.969903 0.0198059 0)
(0.865511 0.0133204 0)
(0.589555 0.00631599 0)
(0.183259 0.00133881 0)
(0.361895 0.0042913 0)
(0.841046 0.0137607 0)
(1.06982 0.0265333 0)
(1.13211 0.0364489 0)
(1.13806 0.0472227 0)
(1.1294 0.058217 0)
(1.11687 0.0682235 0)
(1.10084 0.0768965 0)
(1.08129 0.0827587 0)
(1.05863 0.0840168 0)
(1.03595 0.0794983 0)
(1.01772 0.0708374 0)
(1.00455 0.0608677 0)
(0.995108 0.0509221 0)
(0.988201 0.0415803 0)
(0.980131 0.0326148 0)
(0.95217 0.0240699 0)
(0.841233 0.0158164 0)
(0.562509 0.00719057 0)
(0.168004 0.00151511 0)
(0.397837 0.00846505 0)
(0.88523 0.0237489 0)
(1.10461 0.0386654 0)
(1.15848 0.0518835 0)
(1.15969 0.0655895 0)
(1.14658 0.0782684 0)
(1.1294 0.0897644 0)
(1.10845 0.0989749 0)
(1.08403 0.104259 0)
(1.05648 0.104039 0)
(1.02953 0.0973469 0)
(1.00809 0.0863036 0)
(0.992624 0.0741026 0)
(0.981432 0.061984 0)
(0.972957 0.050564 0)
(0.96325 0.0402951 0)
(0.932979 0.0304169 0)
(0.820602 0.0204766 0)
(0.540623 0.00968868 0)
(0.154254 0.00162303 0)
(0.482998 0.012024 0)
(0.959581 0.0333576 0)
(1.15065 0.0580156 0)
(1.19057 0.0747768 0)
(1.18541 0.0922062 5.14004e-35)
(1.16559 0.106613 -3.9936e-35)
(1.14237 0.118651 0)
(1.11569 0.127082 0)
(1.0857 0.130724 0)
(1.05294 0.128137 0)
(1.02164 0.118467 0)
(0.996849 0.104598 0)
(0.978764 0.0900924 0)
(0.965447 0.0762433 0)
(0.955127 0.0632808 0)
(0.942955 0.0509439 0)
(0.907568 0.0390036 0)
(0.78267 0.0261061 0)
(0.491826 0.0108864 0)
(0.127986 0.00150762 0)
(0.546398 0.0273764 -9.71687e-21)
(1.04403 0.0582097 6.65651e-21)
(1.20184 0.0902385 0)
(1.22643 0.110808 -1.45865e-22)
(1.21166 0.131025 1.1819e-22)
(1.18438 0.144911 4.21338e-35)
(1.15466 0.155532 0)
(1.12161 0.162272 4.33247e-21)
(1.08534 0.163771 -1.57091e-20)
(1.04663 0.158278 3.50759e-21)
(1.00998 0.14552 0)
(0.980878 0.128965 -1.18275e-20)
(0.959329 0.112159 -1.48817e-20)
(0.942969 0.0959776 2.61919e-20)
(0.92966 0.0809444 -2.11023e-20)
(0.913549 0.0667409 0)
(0.870014 0.0515434 -8.17681e-21)
(0.732674 0.0352584 0)
(0.447671 0.0188837 -4.42155e-20)
(0.110798 0.00293838 5.25113e-20)
(0.569372 0.0541385 5.95428e-25)
(1.09067 0.103727 -5.18853e-20)
(1.24385 0.142579 1.29239e-20)
(1.2591 0.160538 2.08544e-20)
(1.2352 0.179183 1.0534e-21)
(1.20116 0.190595 -9.83452e-22)
(1.16467 0.199608 0)
(1.12486 0.204555 0)
(1.08221 0.203815 2.44496e-20)
(1.03723 0.195765 0)
(0.994794 0.180476 4.0292e-20)
(0.960669 0.161662 1.26889e-20)
(0.934534 0.143262 3.88286e-22)
(0.913956 0.126264 -2.94421e-20)
(0.896615 0.110499 0)
(0.876746 0.0962926 0)
(0.832234 0.0812762 -1.38928e-19)
(0.703804 0.0629528 3.49849e-19)
(0.436496 0.034917 -2.07953e-19)
(0.112989 0.0109208 -2.48242e-19)
(0.570754 0.0841871 8.61699e-20)
(1.11779 0.163036 -2.52964e-20)
(1.27485 0.207324 -6.88083e-21)
(1.28536 0.221219 -3.95353e-20)
(1.25446 0.235455 1.35904e-20)
(1.21421 0.242758 8.09663e-21)
(1.17125 0.248873 1.42087e-21)
(1.12527 0.250694 0)
(1.07675 0.246764 -5.02491e-20)
(1.02562 0.235612 5.78133e-20)
(0.977234 0.217472 -1.10238e-19)
(0.938026 0.197051 5.40031e-20)
(0.908131 0.178242 -4.04628e-20)
(0.884341 0.161462 8.83786e-20)
(0.864073 0.146645 0)
(0.842153 0.132646 -3.49908e-20)
(0.799218 0.11886 0)
(0.68212 0.0958778 2.0142e-19)
(0.436753 0.0599117 -4.78192e-19)
(0.126864 0.0186977 3.00415e-19)
(0.556235 0.115198 -3.99646e-19)
(1.12987 0.223732 1.59896e-19)
(1.29364 0.276796 2.57167e-20)
(1.30306 0.28636 0)
(1.26738 0.296339 2.26153e-20)
(1.22226 0.299363 -2.50414e-20)
(1.17406 0.301493 -1.29219e-21)
(1.123 0.299332 0)
(1.06921 0.291748 3.53557e-20)
(1.01276 0.277368 -3.95505e-20)
(0.959971 0.256781 9.67063e-20)
(0.917287 0.23474 0)
(0.883643 0.214853 -8.49925e-20)
(0.856697 0.197848 4.68005e-20)
(0.834901 0.183583 1.27982e-19)
(0.81307 0.170016 -1.12528e-19)
(0.773357 0.155165 1.87408e-19)
(0.66783 0.12991 -4.173e-19)
(0.441615 0.0849321 2.65356e-19)
(0.136868 0.0279074 -3.33741e-19)
(0.536406 0.139705 2.43973e-19)
(1.12897 0.279718 -1.797e-19)
(1.30264 0.345024 8.04874e-20)
(1.3128 0.352022 -1.11984e-19)
(1.27354 0.358782 7.65917e-20)
(1.22505 0.357666 -1.34846e-20)
(1.17302 0.355591 3.73921e-21)
(1.11783 0.349302 -1.97742e-20)
(1.05936 0.338007 -3.46834e-20)
(0.998002 0.320165 -8.45935e-20)
(0.940097 0.296216 -2.08485e-19)
(0.893172 0.27209 -7.08338e-20)
(0.858781 0.251784 2.83241e-21)
(0.832404 0.23412 -1.68396e-19)
(0.810475 0.219416 -6.28074e-21)
(0.789565 0.206269 1.64879e-19)
(0.753398 0.19073 -5.13571e-20)
(0.657204 0.163794 -3.02517e-20)
(0.442068 0.109088 0)
(0.141162 0.0363033 7.12117e-19)
(0.516302 0.162233 0)
(1.11992 0.331887 5.50647e-20)
(1.30401 0.409675 0)
(1.31566 0.415942 -1.20881e-20)
(1.27375 0.420677 -9.20313e-20)
(1.22312 0.415695 2.22844e-20)
(1.16833 0.409688 -2.52151e-21)
(1.10986 0.399442 3.67702e-20)
(1.04763 0.384369 -2.10928e-20)
(0.982832 0.362646 3.65775e-20)
(0.923025 0.335625 1.1236e-19)
(0.876342 0.30952 1.57044e-19)
(0.839774 0.286948 -9.83268e-20)
(0.810983 0.268278 1.82409e-19)
(0.788749 0.252561 -1.46722e-19)
(0.768301 0.240504 0)
(0.734733 0.223225 -3.9362e-19)
(0.644626 0.195198 5.29175e-19)
(0.43803 0.130491 4.02105e-20)
(0.140837 0.0434118 -7.50032e-19)
(0.499057 0.183192 -5.89445e-21)
(1.10844 0.381561 -1.44787e-19)
(1.29997 0.471014 -4.35486e-19)
(1.31301 0.476973 2.41943e-19)
(1.26911 0.480308 -5.54737e-20)
(1.21727 0.472021 3.1649e-20)
(1.16058 0.462639 -1.84169e-20)
(1.09967 0.448785 6.97139e-23)
(1.03471 0.430148 -7.14778e-20)
(0.967149 0.404865 1.0636e-21)
(0.903788 0.374541 -1.22094e-19)
(0.852833 0.344835 -1.6689e-19)
(0.816842 0.320893 1.11086e-19)
(0.790156 0.301081 -6.55279e-20)
(0.768022 0.285 1.59719e-19)
(0.747634 0.271742 0)
(0.716472 0.253952 -2.43886e-19)
(0.629791 0.22204 3.60867e-19)
(0.428525 0.149549 6.93023e-19)
(0.137662 0.0486944 -8.11949e-19)
(0.48434 0.202162 -7.10768e-19)
(1.09422 0.428263 3.59137e-19)
(1.29228 0.529508 2.80174e-19)
(1.30657 0.53523 -2.61959e-19)
(1.26124 0.537129 1.11312e-20)
(1.20865 0.525913 8.24566e-20)
(1.15052 0.513712 3.49093e-21)
(1.08767 0.496721 -1.32282e-20)
(1.02041 0.474854 -4.49383e-20)
(0.950041 0.445969 8.0371e-20)
(0.88462 0.411443 1.14127e-19)
(0.834667 0.379929 2.61225e-19)
(0.796553 0.353385 0)
(0.767183 0.331903 5.39814e-21)
(0.745328 0.313262 -4.44905e-19)
(0.726239 0.300225 1.0206e-19)
(0.69711 0.281545 5.23593e-19)
(0.613785 0.245263 -1.5319e-19)
(0.416037 0.164922 3.2944e-19)
(0.132767 0.0530031 -2.70181e-20)
(0.474022 0.220594 6.59797e-21)
(1.08065 0.4729 3.31389e-19)
(1.28213 0.585354 2.12013e-19)
(1.29735 0.59072 -4.64347e-19)
(1.2509 0.590904 2.99897e-19)
(1.19783 0.577053 -1.00065e-19)
(1.13856 0.562512 -7.23412e-21)
(1.07423 0.542865 2.33942e-20)
(1.00523 0.518051 7.69626e-20)
(0.932808 0.485623 -1.05604e-19)
(0.865454 0.448619 0)
(0.81217 0.412642 -1.03831e-19)
(0.774004 0.383286 1.19206e-19)
(0.746468 0.360047 1.61931e-19)
(0.724813 0.341797 -9.28413e-20)
(0.704902 0.325301 -2.3538e-19)
(0.675414 0.304626 -7.16959e-20)
(0.594039 0.265409 -1.23875e-21)
(0.402014 0.177428 0)
(0.12669 0.0564908 0)
(0.465103 0.237518 -3.49199e-19)
(1.06663 0.514613 0)
(1.27046 0.637911 2.42352e-19)
(1.28664 0.64364 -1.11177e-19)
(1.23938 0.64204 -3.12869e-19)
(1.18577 0.62554 8.61068e-20)
(1.12537 0.608873 -1.37081e-20)
(1.05966 0.586877 -6.91451e-21)
(0.988981 0.559368 4.51575e-20)
(0.914051 0.524103 -4.54015e-20)
(0.843252 0.482684 6.38456e-20)
(0.788502 0.443651 3.23516e-19)
(0.749501 0.412023 1.32067e-20)
(0.720231 0.385821 -1.64823e-19)
(0.699536 0.364046 3.20383e-19)
(0.68282 0.347858 4.4676e-21)
(0.656912 0.327076 7.67063e-20)
(0.577338 0.283456 -3.74826e-19)
(0.386822 0.18788 3.80686e-19)
(0.119926 0.058732 -4.53765e-19)
(0.459044 0.2575 3.17939e-23)
(1.05399 0.554551 0)
(1.25783 0.687148 0)
(1.27458 0.693814 1.04281e-19)
(1.22669 0.690573 1.21935e-19)
(1.17269 0.671592 -7.34354e-20)
(1.11127 0.652896 5.37274e-20)
(1.04437 0.628793 0)
(0.972105 0.599007 -7.64843e-20)
(0.894847 0.56119 1.54753e-19)
(0.822647 0.517044 1.96791e-19)
(0.767797 0.475744 -1.22504e-19)
(0.728865 0.440226 -1.54505e-19)
(0.702028 0.412497 3.65911e-19)
(0.68012 0.38958 -1.13303e-19)
(0.660027 0.36918 -1.37901e-19)
(0.630991 0.344596 -8.46701e-20)
(0.552951 0.297189 -4.07027e-19)
(0.370333 0.195697 5.66821e-20)
(0.112113 0.0600647 4.93411e-19)
(0.455434 0.276479 -1.39306e-19)
(1.04208 0.591783 -2.19665e-19)
(1.24461 0.732863 2.38396e-20)
(1.26198 0.74096 2.0516e-22)
(1.21374 0.736601 4.18844e-20)
(1.15937 0.715401 -1.93244e-19)
(1.09701 0.694794 0)
(1.02896 0.668727 8.38098e-21)
(0.955386 0.636913 -6.60861e-21)
(0.876464 0.596684 2.4077e-19)
(0.802263 0.549645 -5.05958e-20)
(0.743032 0.50308 5.54029e-20)
(0.700112 0.464382 0)
(0.66873 0.431799 -2.00044e-19)
(0.650678 0.406114 2.50445e-19)
(0.63668 0.386807 0)
(0.612849 0.360329 -1.86071e-19)
(0.535168 0.310764 5.43573e-19)
(0.352881 0.201474 6.50474e-20)
(0.103764 0.0600507 -6.12187e-19)
(0.453156 0.2936 -3.08776e-19)
(1.03133 0.627211 3.95275e-19)
(1.2311 0.775608 0)
(1.2487 0.784997 2.58842e-19)
(1.2002 0.779795 0)
(1.14572 0.756873 1.82897e-19)
(1.08275 0.734602 0)
(1.01393 0.706799 0)
(0.939136 0.673148 -2.75997e-20)
(0.857912 0.631131 -2.35993e-19)
(0.779847 0.581577 -3.66252e-19)
(0.72026 0.533274 7.09536e-20)
(0.680588 0.491947 2.66967e-19)
(0.654783 0.458106 2.25797e-19)
(0.631675 0.430639 -8.03844e-19)
(0.612007 0.402269 -3.3376e-19)
(0.583287 0.37585 1.93821e-19)
(0.50806 0.318833 0)
(0.334032 0.204733 5.6346e-19)
(0.0945258 0.0589329 -6.65114e-19)
(0.451267 0.309537 3.40557e-19)
(1.02059 0.660133 -4.34051e-19)
(1.21758 0.815284 0)
(1.23538 0.826035 -1.00134e-20)
(1.18672 0.82023 -1.06751e-19)
(1.13221 0.795912 0)
(1.06878 0.772254 -1.74838e-20)
(0.999226 0.742962 1.66981e-20)
(0.923045 0.707763 -2.96868e-20)
(0.839743 0.66412 2.14953e-20)
(0.759892 0.611704 0)
(0.697097 0.559268 2.81608e-19)
(0.650174 0.512473 3.73972e-21)
(0.615913 0.473096 1.22896e-19)
(0.598109 0.438633 1.48419e-19)
(0.585986 0.417843 0)
(0.564561 0.383288 -3.29429e-19)
(0.487947 0.325898 6.45865e-19)
(0.314674 0.205663 -6.89433e-19)
(0.0854084 0.0565647 1.44705e-18)
(0.449549 0.324766 0)
(1.01062 0.691799 0)
(1.2043 0.852484 -2.37783e-19)
(1.22195 0.864294 0)
(1.17306 0.857835 0)
(1.11862 0.832419 2.59243e-19)
(1.0549 0.807684 -2.1552e-20)
(0.984806 0.77718 1.66819e-20)
(0.907496 0.740728 3.39554e-22)
(0.822345 0.695977 0)
(0.73981 0.642505 -5.9234e-20)
(0.672674 0.588949 -2.34031e-19)
(0.626767 0.54077 -2.95946e-19)
(0.599724 0.497193 -1.23661e-19)
(0.57847 0.46428 1.6392e-19)
(0.559998 0.42778 -3.89865e-19)
(0.531902 0.394969 7.14258e-19)
(0.458374 0.329662 8.49694e-21)
(0.294117 0.204278 -6.67598e-19)
(0.0758759 0.0532541 -9.92125e-20)
(0.447805 0.339541 0)
(1.00082 0.721413 -3.3716e-19)
(1.19136 0.887176 2.65613e-19)
(1.20886 0.900118 0)
(1.15977 0.893024 0)
(1.10537 0.866553 -5.71757e-19)
(1.04136 0.840881 0)
(0.970865 0.809414 0)
(0.892544 0.772123 -4.19426e-20)
(0.805635 0.726457 4.52012e-20)
(0.719553 0.671376 -4.63381e-19)
(0.649338 0.614518 0)
(0.597977 0.56212 -3.21056e-19)
(0.558726 0.514296 1.17841e-20)
(0.538871 0.469419 -5.23396e-19)
(0.529326 0.436578 2.11575e-19)
(0.510402 0.394219 4.38911e-21)
(0.437926 0.328699 -7.66961e-19)
(0.274947 0.200303 3.63958e-19)
(0.0687765 0.0495523 1.06146e-19)
(0.446151 0.353702 0)
(0.991855 0.749794 -3.97061e-19)
(1.17892 0.919752 2.82138e-19)
(1.196 0.933596 5.9604e-19)
(1.14668 0.925819 1.22537e-19)
(1.09237 0.898431 -8.61856e-20)
(1.02821 0.871985 5.44641e-20)
(0.957422 0.839769 -1.24187e-19)
(0.878226 0.801806 4.48665e-20)
(0.789365 0.755801 2.61639e-19)
(0.70051 0.700616 3.84231e-19)
(0.627055 0.643007 7.50319e-20)
(0.572205 0.586583 4.67002e-19)
(0.540031 0.534976 3.0568e-19)
(0.516339 0.489316 3.78315e-19)
(0.498521 0.441911 -2.37783e-19)
(0.475572 0.401551 -2.83738e-19)
(0.406911 0.325455 3.34424e-19)
(0.252062 0.192406 -1.98497e-19)
(0.0631879 0.0460609 3.4782e-19)
(0.444444 0.367178 5.24507e-19)
(0.983119 0.776169 6.30482e-19)
(1.16687 0.95018 1.54542e-19)
(1.1836 0.965016 1.6012e-20)
(1.13418 0.956621 -4.23809e-19)
(1.07998 0.928296 1.65296e-19)
(1.01568 0.901161 -6.19773e-20)
(0.944693 0.868268 -2.12545e-20)
(0.864729 0.829815 -2.93543e-20)
(0.774715 0.78357 -2.94623e-19)
(0.683562 0.727513 2.22503e-20)
(0.60523 0.667268 0)
(0.546551 0.610666 0)
(0.496272 0.554885 -1.54776e-19)
(0.470513 0.495456 -6.21683e-19)
(0.460515 0.449907 5.16078e-19)
(0.447607 0.383453 3.17802e-19)
(0.389302 0.305824 0)
(0.248978 0.170879 6.32786e-19)
(0.0576922 0.0299442 -3.78841e-19)
(0.442753 0.37976 -2.80348e-19)
(0.974972 0.801204 2.41187e-19)
(1.15528 0.978655 -3.44946e-19)
(1.17152 0.994266 -3.73294e-19)
(1.12203 0.985274 -1.66547e-19)
(1.06807 0.956207 3.97316e-20)
(1.00372 0.92849 0)
(0.93256 0.895037 1.76089e-19)
(0.851844 0.856382 7.81146e-21)
(0.76013 0.810181 0)
(0.66522 0.75526 0)
(0.58215 0.697469 5.31193e-20)
(0.515723 0.638352 8.29406e-20)
(0.476098 0.576356 -1.66482e-19)
(0.443219 0.521779 4.49899e-19)
(0.419378 0.447244 -5.68018e-19)
(0.399718 0.382111 -6.85914e-19)
(0.360672 0.285295 6.11004e-19)
(0.26479 0.177242 -2.28587e-19)
(0.133987 0.101382 1.3078e-19)
(0.440773 0.391423 3.23512e-19)
(0.966888 0.824309 0)
(1.14402 1.00519 0)
(1.15995 1.02166 -1.26095e-19)
(1.11054 1.01214 1.0205e-19)
(1.0568 0.982319 -2.06998e-20)
(0.992434 0.954107 -2.37307e-19)
(0.921255 0.920254 -2.59236e-19)
(0.840016 0.881528 -1.10132e-21)
(0.747279 0.835691 -2.4185e-20)
(0.650671 0.780961 6.01089e-20)
(0.563573 0.722078 -4.30758e-19)
(0.494518 0.663372 -4.81243e-19)
(0.429045 0.602858 -8.85085e-20)
(0.385765 0.529714 0)
(0.364751 0.462061 -1.35676e-20)
(0.35185 0.344084 3.75479e-19)
(0.319477 0.195235 -6.43195e-19)
(0.28904 0.024229 4.74568e-19)
(0.0885831 -0.0736085 3.78119e-19)
(0.438697 0.402445 -7.05017e-19)
(0.959202 0.846239 -3.02234e-19)
(1.13313 1.03009 5.81001e-21)
(1.1486 1.04724 1.59392e-19)
(1.09922 1.03729 0)
(1.0458 1.00699 4.86622e-19)
(0.981501 0.978501 2.96913e-19)
(0.910337 0.94442 -4.74078e-20)
(0.828626 0.905772 1.56343e-20)
(0.734431 0.860477 -2.24801e-20)
(0.634908 0.807 2.088e-20)
(0.544883 0.751834 3.81157e-19)
(0.46417 0.693787 4.70641e-19)
(0.4096 0.629432 8.50661e-20)
(0.358823 0.567989 4.73891e-19)
(0.304454 0.468724 0)
(0.213802 0.351673 0)
(0.0717608 0.329292 4.78533e-19)
(-0.0543423 0.633855 -3.27687e-20)
(-0.00218664 1.47261 -6.19343e-19)
(0.43626 0.413035 3.82803e-19)
(0.951574 0.866581 9.06737e-19)
(1.12251 1.0535 -1.36379e-18)
(1.1377 1.07155 8.24727e-19)
(1.08843 1.06133 -9.77479e-20)
(1.03523 1.03065 6.3204e-19)
(0.970945 1.00206 0)
(0.899761 0.967952 2.63306e-19)
(0.817573 0.929886 0)
(0.722397 0.885481 1.87482e-19)
(0.620426 0.834021 -3.4565e-20)
(0.523054 0.779833 3.87558e-20)
(0.443363 0.72473 5.16921e-19)
(0.357722 0.669682 -1.93642e-19)
(0.275641 0.595258 -2.50029e-19)
(0.207214 0.536868 0)
(0.113383 0.622203 0)
(0.0504396 1.20606 0)
(0.0844684 2.40392 -2.69562e-19)
(0.117156 2.88186 -1.67118e-19)
(0.433797 0.423084 0)
(0.944408 0.885944 0)
(1.11226 1.07557 4.87682e-19)
(1.12702 1.09431 -6.87774e-19)
(1.07776 1.08389 4.75021e-19)
(1.02486 1.05308 -5.79737e-19)
(0.960684 1.02463 -3.45518e-20)
(0.889622 0.990819 2.69027e-20)
(0.807079 0.953445 1.54218e-21)
(0.710899 0.910337 -2.12283e-19)
(0.607109 0.86156 5.08249e-20)
(0.512246 0.812569 3.52685e-19)
(0.417791 0.763412 -5.087e-19)
(0.342024 0.701586 -5.99223e-19)
(0.277787 0.660298 2.10788e-19)
(0.214446 0.774588 0)
(0.156901 1.45807 3.0435e-19)
(0.158339 2.65342 3.46282e-19)
(0.160238 3.07475 -3.87522e-19)
(0.151621 3.21699 4.34837e-19)
(0.431165 0.432077 0)
(0.937234 0.903635 7.35704e-19)
(1.10233 1.09621 -1.26478e-19)
(1.11691 1.1159 8.64024e-19)
(1.06774 1.10542 -4.98604e-19)
(1.01505 1.07452 0)
(0.950927 1.0463 0)
(0.879967 1.01289 0)
(0.7973 0.976521 -1.06979e-19)
(0.700735 0.93541 -1.13849e-21)
(0.594299 0.889316 0)
(0.487671 0.841753 -3.43128e-19)
(0.402411 0.796534 0)
(0.297562 0.760635 4.25679e-19)
(0.226329 0.837234 -2.74607e-19)
(0.178696 1.421 -2.31359e-19)
(0.193967 2.64427 -5.72398e-19)
(0.211842 3.12397 -2.82544e-19)
(0.200657 3.27511 -3.14031e-19)
(0.185206 3.31717 2.81817e-19)
(0.428628 0.440437 -2.4847e-19)
(0.930527 0.920519 1.46937e-20)
(1.09279 1.11573 -1.36195e-19)
(1.10698 1.13612 -6.9194e-19)
(1.05783 1.12565 0)
(1.00545 1.09489 0)
(0.941514 1.06708 0)
(0.870764 1.03423 -1.82586e-20)
(0.788002 0.999115 1.25168e-19)
(0.690512 0.959837 0)
(0.583312 0.91637 0)
(0.486081 0.876699 0)
(0.377155 0.843131 0)
(0.310541 0.840692 2.7453e-19)
(0.294132 1.17314 7.20206e-19)
(0.292339 2.30114 2.25937e-19)
(0.304096 3.07715 4.01215e-19)
(0.294476 3.29646 -2.42419e-19)
(0.241977 3.36723 8.96196e-20)
(0.207033 3.38044 0)
(0.425877 0.448201 2.51665e-19)
(0.923505 0.936158 -1.58516e-18)
(1.08334 1.13439 -4.48601e-19)
(1.09746 1.15584 -1.09808e-19)
(1.04842 1.14548 1.2742e-19)
(0.996271 1.11483 -9.0402e-19)
(0.932404 1.08743 6.17299e-20)
(0.861903 1.0553 4.4531e-19)
(0.779264 1.0215 0)
(0.68201 0.984744 -1.18063e-20)
(0.574057 0.945544 1.07402e-20)
(0.463748 0.906886 0)
(0.385522 0.881116 0)
(0.341581 1.00203 -3.39389e-19)
(0.312736 1.80274 -1.03047e-20)
(0.310488 2.91026 -1.09354e-19)
(0.327067 3.29763 1.61526e-19)
(0.299747 3.40667 2.82093e-20)
(0.230262 3.43539 1.69168e-19)
(0.203077 3.44395 -8.61259e-20)
(0.422823 0.45606 4.84513e-19)
(0.916386 0.952714 1.51537e-18)
(1.07342 1.15372 5.51902e-19)
(1.08723 1.17582 0)
(1.0383 1.16549 0)
(0.986578 1.135 6.92578e-19)
(0.923115 1.10808 -4.34113e-19)
(0.853056 1.07656 -4.08851e-19)
(0.77071 1.04413 -1.675e-20)
(0.673373 1.00971 -1.87307e-20)
(0.564907 0.974063 -2.13413e-19)
(0.45836 0.944831 0)
(0.377181 0.961529 0)
(0.352946 1.32165 -1.79929e-19)
(0.377811 2.39089 -2.36294e-19)
(0.42086 3.19587 0)
(0.449559 3.39496 1.45759e-19)
(0.379207 3.46445 2.34856e-19)
(0.299643 3.50885 -5.47178e-19)
(0.272335 3.535 3.12178e-19)
(0.41903 0.463864 -9.18787e-19)
(0.907956 0.969093 -7.20763e-19)
(1.06259 1.1736 0)
(1.07656 1.19674 0)
(1.02793 1.18646 0)
(0.976602 1.1559 0)
(0.913411 1.12922 4.64085e-19)
(0.843949 1.09832 -5.20261e-19)
(0.762197 1.06718 0)
(0.665725 1.03514 2.30355e-20)
(0.55828 1.00351 3.40364e-19)
(0.456491 0.977443 1.90664e-20)
(0.409046 1.04969 3.42544e-20)
(0.428632 1.68873 2.57225e-19)
(0.45679 2.85243 -4.95403e-20)
(0.491373 3.33419 0)
(0.473304 3.47281 -9.90125e-20)
(0.378665 3.56315 1.07728e-19)
(0.284904 3.64042 3.80804e-19)
(0.206428 3.62346 -3.39982e-19)
(0.41472 0.472088 4.3535e-19)
(0.899226 0.987402 -7.07667e-19)
(1.0508 1.19494 0)
(1.06457 1.21839 -1.76695e-19)
(1.01626 1.20793 6.72073e-19)
(0.965582 1.17732 0)
(0.903121 1.1509 0)
(0.83447 1.1205 9.70873e-19)
(0.753567 1.09056 1.86818e-20)
(0.657894 1.06097 -1.35386e-19)
(0.55017 1.03477 -1.36838e-19)
(0.455407 1.03213 1.19851e-19)
(0.420398 1.23349 0)
(0.465353 2.06762 -1.15962e-19)
(0.522768 3.1167 1.04666e-19)
(0.58435 3.44325 -6.51949e-20)
(0.580958 3.55727 0)