/*--------------------------------*- C++ -*----------------------------------*\
| =========                 |                                                 |
| \\      /  F ield         | OpenFOAM: The Open Source CFD Toolbox           |
|  \\    /   O peration     | Version:  v2012                                 |
|   \\  /    A nd           | Website:  www.openfoam.com                      |
|    \\/     M anipulation  |                                                 |
\*---------------------------------------------------------------------------*/
FoamFile
{
    version     2.0;
    format      ascii;
    class       volScalarField;
    location    "53";
    object      p;
}
// * * * * * * * * * * * * * * * * * * * * * * * * * * * * * * * * * * * * * //

dimensions      [0 2 -2 0 0 0 0];


internalField   nonuniform List<scalar> 
2200
(
0.776669
0.755169
0.739261
0.723595
0.708986
0.696465
0.68611
0.678005
0.672298
0.669352
0.669812
0.673606
0.679954
0.688515
0.699195
0.711962
0.726744
0.742657
0.758694
0.780194
0.709096
0.705838
0.702915
0.698796
0.693328
0.686853
0.680235
0.674279
0.669773
0.667378
0.667868
0.671159
0.676332
0.682784
0.68976
0.696508
0.702172
0.706275
0.709132
0.712489
0.669185
0.669405
0.671456
0.672796
0.673188
0.672333
0.670345
0.667666
0.665123
0.663632
0.664191
0.666643
0.669911
0.673121
0.675459
0.676455
0.676182
0.675177
0.673524
0.673276
0.64667
0.648117
0.650723
0.653192
0.655635
0.657652
0.658808
0.659036
0.658659
0.65836
0.658985
0.66036
0.661554
0.661943
0.661257
0.659584
0.657418
0.65521
0.652595
0.65119
0.632356
0.634331
0.637148
0.639975
0.642825
0.645652
0.648109
0.64997
0.651195
0.651989
0.652711
0.653182
0.652937
0.65182
0.649951
0.647574
0.645026
0.642301
0.639503
0.637578
0.625011
0.626609
0.628807
0.631331
0.633996
0.636662
0.639247
0.641659
0.643667
0.645172
0.646025
0.646034
0.645205
0.643687
0.641791
0.639647
0.637316
0.634973
0.632877
0.631302
0.621592
0.622614
0.62388
0.625741
0.627885
0.630052
0.632242
0.634525
0.636741
0.638578
0.639596
0.639595
0.638808
0.637597
0.636192
0.634629
0.632939
0.631366
0.630246
0.62923
0.618955
0.619626
0.620257
0.621558
0.623168
0.624847
0.626595
0.628518
0.630575
0.632525
0.633763
0.634068
0.633728
0.6331
0.632313
0.63135
0.630282
0.629347
0.628898
0.628222
0.615711
0.616157
0.616551
0.617544
0.618805
0.620188
0.62168
0.623333
0.62517
0.627119
0.628611
0.629377
0.629631
0.629566
0.629277
0.628801
0.628212
0.627668
0.627476
0.627012
0.611671
0.611968
0.612326
0.613194
0.614302
0.615567
0.616995
0.618598
0.620387
0.622377
0.624225
0.625528
0.626281
0.626643
0.626706
0.62655
0.626236
0.625899
0.625766
0.625443
0.607002
0.607204
0.607573
0.608401
0.60949
0.610792
0.612308
0.614036
0.615994
0.618227
0.620467
0.622249
0.623423
0.624095
0.624398
0.624458
0.624316
0.624119
0.624007
0.623772
0.601839
0.601986
0.602357
0.603165
0.604312
0.605749
0.60746
0.60944
0.611719
0.614358
0.617114
0.619369
0.6209
0.621843
0.62236
0.622577
0.622632
0.62258
0.622499
0.622312
0.596263
0.596373
0.596752
0.597567
0.598779
0.600363
0.602315
0.604638
0.607372
0.610568
0.613932
0.616736
0.618676
0.619928
0.620692
0.621133
0.621374
0.621444
0.621404
0.621241
0.590292
0.59036
0.590739
0.591583
0.592919
0.59469
0.596908
0.599627
0.60295
0.606894
0.611007
0.614394
0.616786
0.618412
0.619525
0.620256
0.620701
0.620908
0.620906
0.620755
0.583825
0.583864
0.584284
0.585191
0.586663
0.588644
0.591174
0.594344
0.598294
0.603057
0.608079
0.612206
0.615222
0.617406
0.618943
0.619999
0.620692
0.621043
0.621088
0.620938
0.576757
0.576732
0.577152
0.578142
0.579826
0.582068
0.58493
0.588591
0.59325
0.598971
0.605062
0.610248
0.614076
0.616894
0.618983
0.620444
0.621407
0.621909
0.622007
0.621858
0.568789
0.568762
0.569212
0.570331
0.57224
0.574782
0.578098
0.582394
0.587905
0.594781
0.602203
0.608598
0.613463
0.617074
0.61976
0.62169
0.622976
0.623644
0.623796
0.623638
0.559843
0.559867
0.560291
0.561512
0.563736
0.566722
0.570662
0.57578
0.582378
0.590673
0.599699
0.607499
0.613489
0.618022
0.621403
0.623838
0.625467
0.626312
0.626517
0.626347
0.549445
0.549424
0.549964
0.551406
0.554017
0.557606
0.562381
0.568585
0.576555
0.586561
0.597492
0.607012
0.614326
0.619849
0.623964
0.627005
0.629017
0.630037
0.630293
0.630105
0.537128
0.537061
0.537736
0.539554
0.542683
0.547036
0.552893
0.560516
0.570305
0.582528
0.595769
0.607208
0.615964
0.622609
0.627625
0.631273
0.633704
0.634906
0.635207
0.634994
0.52254
0.522433
0.523203
0.525409
0.529297
0.534729
0.542032
0.551572
0.563771
0.578744
0.594613
0.608118
0.618484
0.626398
0.632364
0.636751
0.639641
0.641009
0.641346
0.641105
0.504721
0.504636
0.50563
0.508386
0.513279
0.520198
0.529511
0.541557
0.556734
0.574969
0.593926
0.609859
0.621994
0.631288
0.638324
0.643514
0.646866
0.648412
0.648771
0.648497
0.482697
0.482545
0.483852
0.487453
0.493852
0.502902
0.514904
0.530176
0.548931
0.57097
0.593468
0.612263
0.626518
0.637348
0.645572
0.651611
0.655424
0.657119
0.657482
0.65717
0.454309
0.454312
0.456374
0.461389
0.47003
0.482142
0.497873
0.517269
0.540342
0.566804
0.593407
0.615373
0.631925
0.644507
0.654066
0.660998
0.665263
0.667091
0.667423
0.667069
0.416753
0.416991
0.420489
0.428331
0.440902
0.457865
0.478831
0.503646
0.532112
0.563748
0.594666
0.61979
0.638641
0.652978
0.66387
0.671734
0.676364
0.678205
0.678461
0.678066
0.366598
0.366967
0.373898
0.38705
0.40608
0.430229
0.458235
0.489745
0.524471
0.561811
0.597298
0.625649
0.646775
0.662828
0.675029
0.683586
0.688279
0.689877
0.689967
0.689616
0.300416
0.303234
0.318245
0.339511
0.367414
0.400488
0.436657
0.475645
0.517324
0.561082
0.601855
0.633939
0.657943
0.676228
0.689938
0.699483
0.704308
0.705611
0.705567
0.705396
0.225139
0.23451
0.259519
0.290619
0.328612
0.370702
0.415028
0.461701
0.51063
0.561172
0.60764
0.644569
0.672227
0.693145
0.709081
0.719733
0.72463
0.725527
0.725446
0.725408
0.157735
0.1724
0.203681
0.243574
0.291062
0.341922
0.394224
0.448491
0.504483
0.561586
0.61403
0.655418
0.686195
0.709728
0.727162
0.738805
0.743911
0.744708
0.744945
0.744916
0.106264
0.119413
0.156032
0.202029
0.256821
0.315155
0.374819
0.436372
0.499471
0.563321
0.621511
0.66651
0.700201
0.725662
0.744558
0.757086
0.762567
0.763886
0.764034
0.76408
0.0638349
0.076236
0.116542
0.166486
0.22677
0.291123
0.357288
0.425433
0.494976
0.564793
0.627599
0.676656
0.713077
0.740482
0.760974
0.774135
0.780292
0.781965
0.782068
0.782155
0.0274581
0.0401325
0.0831123
0.135946
0.200612
0.269818
0.341438
0.415183
0.490217
0.565552
0.63357
0.686298
0.724821
0.753946
0.77575
0.789672
0.796155
0.798057
0.798215
0.798299
-0.00427253
0.0086116
0.0537606
0.109179
0.177439
0.250617
0.326816
0.405393
0.485521
0.566309
0.638997
0.69452
0.735444
0.766067
0.788622
0.80318
0.810114
0.812177
0.812421
0.812494
-0.0325845
-0.0196482
0.0272002
0.0850728
0.156422
0.232988
0.313156
0.396071
0.480929
0.566389
0.64287
0.70176
0.744625
0.776284
0.799571
0.814773
0.82192
0.824201
0.824507
0.824554
-0.0584176
-0.0454475
0.00259921
0.0628499
0.136969
0.216537
0.300211
0.386949
0.475927
0.565658
0.646521
0.708241
0.752528
0.785464
0.809026
0.824514
0.832025
0.834488
0.834857
0.834876
-0.0825722
-0.0692695
-0.0204082
0.0420137
0.118578
0.200857
0.287639
0.377705
0.470397
0.564344
0.649188
0.713317
0.759538
0.793295
0.817474
0.833151
0.840761
0.843352
0.843722
0.843696
-0.105273
-0.0917886
-0.0420577
0.0222539
0.100913
0.185599
0.275111
0.368157
0.46432
0.562207
0.650766
0.718008
0.765995
0.800617
0.825182
0.840648
0.848387
0.850897
0.851256
0.851098
-0.126674
-0.113143
-0.0626322
0.00328854
0.0837158
0.170517
0.262476
0.358271
0.457619
0.559067
0.651413
0.722034
0.771918
0.80749
0.832231
0.847527
0.854933
0.857441
0.85778
0.857676
-0.147189
-0.133487
-0.0823468
-0.0150888
0.06686
0.155547
0.249703
0.347973
0.450143
0.554973
0.651401
0.725444
0.77756
0.814381
0.839004
0.853833
0.861058
0.863335
0.86367
0.863569
-0.167223
-0.152993
-0.101406
-0.0329954
0.0502801
0.140641
0.23676
0.337236
0.441985
0.550169
0.65062
0.728221
0.783289
0.82133
0.84599
0.860252
0.866824
0.868811
0.869054
0.868955
-0.186945
-0.171952
-0.119935
-0.0504868
0.0339544
0.1258
0.22365
0.326103
0.433258
0.544543
0.648803
0.73038
0.788677
0.828763
0.853712
0.86698
0.872666
0.873875
0.873997
0.873924
-0.206212
-0.190484
-0.138011
-0.0675755
0.01789
0.111015
0.210373
0.314616
0.423985
0.538057
0.646016
0.731858
0.7939
0.836685
0.86253
0.874861
0.87868
0.878612
0.878466
0.878341
-0.224951
-0.208623
-0.155625
-0.0842618
0.00209823
0.0963243
0.196991
0.302846
0.414234
0.530813
0.642139
0.732256
0.798593
0.845109
0.873034
0.884408
0.885821
0.88315
0.882762
0.883616
-0.24306
-0.226283
-0.172749
-0.100524
-0.0133752
0.0817882
0.183578
0.290847
0.404006
0.52275
0.637012
0.731409
0.802656
0.853761
0.885241
0.897183
0.895721
0.889092
0.884053
0.882713
-0.26056
-0.243403
-0.189321
-0.11632
-0.0284798
0.0674827
0.170215
0.278668
0.393325
0.513948
0.630753
0.729119
0.805388
0.86233
0.89907
0.914082
0.913383
0.901771
0.900893
0.90508
-0.277415
-0.259899
-0.205296
-0.1316
-0.0431504
0.0534779
0.156968
0.266371
0.382264
0.504496
0.623447
0.72518
0.806494
0.869735
0.91357
0.93494
0.937265
0.908445
0.868516
0.833173
-0.293598
-0.275804
-0.2207
-0.146422
-0.0574832
0.0396502
0.143687
0.253788
0.370629
0.494169
0.614804
0.71911
0.804807
0.87495
0.927815
0.958785
0.976122
0.95656
0.973561
1.03259
-0.309041
-0.291132
-0.235631
-0.160933
-0.0716588
0.0257739
0.130104
0.240601
0.358019
0.482418
0.604216
0.710276
0.799316
0.875053
0.93355
0.968986
0.97913
0.956828
0.915287
0.93038
-0.323738
-0.30588
-0.250037
-0.175074
-0.0856062
0.0119437
0.116353
0.226968
0.344571
0.469307
0.591661
0.698358
0.788053
0.865499
0.924764
0.959748
0.946782
0.8925
0.828329
0.815974
-0.337655
-0.32001
-0.263918
-0.188855
-0.0993255
-0.00183186
0.102455
0.212915
0.330314
0.454859
0.577063
0.683112
0.770903
0.843795
0.897515
0.905501
0.870146
0.79295
0.718277
0.695745
-0.350844
-0.33354
-0.27728
-0.202285
-0.112836
-0.0155652
0.088415
0.198457
0.315264
0.439058
0.560253
0.66423
0.746444
0.80781
0.836857
0.823857
0.765549
0.663798
0.576355
0.554075
-0.363751
-0.346844
-0.290519
-0.215737
-0.126489
-0.029565
0.0739584
0.183363
0.299252
0.421765
0.541052
0.64124
0.716128
0.761679
0.756731
0.72183
0.610749
0.48824
0.380777
0.353552
-0.377275
-0.36076
-0.304328
-0.22982
-0.140852
-0.044319
0.0586679
0.167294
0.282022
0.402742
0.519129
0.613649
0.681354
0.702884
0.669393
0.581597
0.425656
0.273015
0.143701
0.116048
-0.391929
-0.375634
-0.319037
-0.244787
-0.156106
-0.0599567
0.0424538
0.150205
0.263572
0.382013
0.494486
0.58248
0.639844
0.633238
0.580809
0.431241
0.231728
0.019386
-0.160556
-0.209007
-0.407845
-0.391641
-0.334698
-0.260643
-0.172234
-0.0764567
0.0253425
0.13213
0.243947
0.35965
0.467101
0.549173
0.591893
0.553573
0.466452
0.278958
0.0481943
-0.240035
-0.560869
-0.708779
-0.425079
-0.408786
-0.351448
-0.27751
-0.189298
-0.0938787
0.00727214
0.113004
0.223096
0.33569
0.437332
0.513102
0.538096
0.469376
0.333301
0.128336
-0.105179
-0.448329
-1.03439
-1.60598
-0.443735
-0.427272
-0.369341
-0.295417
-0.207317
-0.112221
-0.0117282
0.0928977
0.201176
0.310563
0.406309
0.474358
0.480624
0.395274
0.204617
-0.0283031
-0.230489
-0.464459
-1.01897
-2.53247
-0.463807
-0.447035
-0.388502
-0.314534
-0.226464
-0.131684
-0.0318964
0.0715347
0.177868
0.283892
0.373685
0.432315
0.418246
0.337379
0.111817
-0.125857
-0.273073
-0.309782
-0.299066
-0.68646
-0.485255
-0.468411
-0.409073
-0.335108
-0.247126
-0.152769
-0.0538634
0.0481428
0.152229
0.254339
0.338626
0.387011
0.357217
0.288363
0.0620997
-0.139632
-0.249846
-0.257364
-0.20399
-0.244145
-0.507884
-0.491023
-0.43109
-0.357268
-0.269412
-0.175608
-0.0777803
0.0225648
0.124051
0.221673
0.301141
0.339697
0.303514
0.235443
0.0305413
-0.129766
-0.211462
-0.219137
-0.267082
-0.271206
-0.53184
-0.514971
-0.454419
-0.380928
-0.293281
-0.200219
-0.103696
-0.00527253
0.0932822
0.186293
0.261196
0.290239
0.256998
0.175218
0.00269724
-0.119681
-0.189668
-0.166525
-0.186989
-0.188567
-0.556653
-0.539628
-0.479025
-0.406096
-0.318633
-0.226536
-0.131526
-0.0352352
0.060089
0.148582
0.218911
0.237463
0.216427
0.107892
-0.0318273
-0.114637
-0.153586
-0.200877
-0.175745
-0.184186
-0.58218
-0.564772
-0.504662
-0.432461
-0.345179
-0.254381
-0.161093
-0.0671357
0.0246093
0.108873
0.175193
0.183602
0.174185
0.0476686
-0.0685919
-0.132957
-0.110494
-0.170159
-0.150841
-0.155658
-0.607419
-0.589835
-0.531245
-0.459794
-0.37266
-0.283544
-0.192108
-0.100609
-0.0129082
0.0675765
0.131139
0.13216
0.122868
-0.003942
-0.0952804
-0.146996
-0.135401
-0.150607
-0.156054
-0.154241
-0.63208
-0.614632
-0.557944
-0.487196
-0.400617
-0.313618
-0.224163
-0.13529
-0.0519569
0.0249548
0.087118
0.0844605
0.0664792
-0.0468953
-0.109506
-0.139937
-0.178829
-0.151132
-0.15722
-0.151751
-0.655058
-0.638351
-0.583668
-0.514017
-0.428834
-0.344113
-0.256731
-0.170595
-0.0916711
-0.0186564
0.042806
0.0404003
0.011275
-0.0839592
-0.124498
-0.11308
-0.185748
-0.13201
-0.147577
-0.139994
-0.675763
-0.660178
-0.60742
-0.538999
-0.456704
-0.374165
-0.289102
-0.205934
-0.131077
-0.0627776
-0.00193499
-0.000613199
-0.035721
-0.10279
-0.135943
-0.0952149
-0.140085
-0.121661
-0.128115
-0.125258
-0.692512
-0.678586
-0.628424
-0.562008
-0.483418
-0.402837
-0.320477
-0.240488
-0.169227
-0.10655
-0.0471295
-0.0403433
-0.0703981
-0.106715
-0.130732
-0.109654
-0.121501
-0.12181
-0.122244
-0.122572
-0.704539
-0.692729
-0.645797
-0.581791
-0.50692
-0.429146
-0.349879
-0.273342
-0.205235
-0.148688
-0.0912146
-0.0783773
-0.0992641
-0.104821
-0.122217
-0.135467
-0.123929
-0.132011
-0.125855
-0.127139
-0.710373
-0.700984
-0.65826
-0.597595
-0.526456
-0.452012
-0.376268
-0.303282
-0.238135
-0.187252
-0.131578
-0.115777
-0.13647
-0.109883
-0.0992832
-0.130727
-0.112037
-0.141158
-0.138485
-0.141
-0.709984
-0.702724
-0.664243
-0.60733
-0.540284
-0.469962
-0.39826
-0.329041
-0.266997
-0.220268
-0.167159
-0.151605
-0.178117
-0.140344
-0.0398736
-0.0758984
-0.0743122
-0.0917268
-0.0976455
-0.106975
-0.702356
-0.695049
-0.661809
-0.610274
-0.548102
-0.48213
-0.414592
-0.348884
-0.289748
-0.245392
-0.196355
-0.187963
-0.214945
-0.241403
-0.206785
-0.26919
-0.277155
-0.266884
-0.259156
-0.253902
-0.682578
-0.674346
-0.648834
-0.604387
-0.548049
-0.487195
-0.424169
-0.361542
-0.304056
-0.26011
-0.214231
-0.20766
-0.281558
-0.456109
-0.761936
-0.911126
-0.950457
-0.919719
-0.841738
-0.777346
-0.641818
-0.634086
-0.623668
-0.590683
-0.541498
-0.485506
-0.426594
-0.365685
-0.307283
-0.260583
-0.215902
-0.191474
-0.302819
-0.518367
-0.780517
-0.875144
-0.856574
-0.776492
-0.708187
-0.674616
-0.599192
-0.596062
-0.594886
-0.569077
-0.528221
-0.47814
-0.422332
-0.361547
-0.298564
-0.243342
-0.190665
-0.118068
-0.0630464
0.0132253
0.0632988
0.169058
0.283213
0.358976
0.423795
0.476844
-0.575561
-0.576713
-0.568144
-0.550535
-0.516187
-0.468627
-0.41253
-0.350365
-0.279828
-0.205188
-0.130073
0.0124506
0.207076
0.527346
0.838883
1.09632
1.27816
1.38135
1.42585
1.44347
-0.544273
-0.54472
-0.540315
-0.534479
-0.505034
-0.459667
-0.402269
-0.336646
-0.258319
-0.165037
-0.063917
0.0849577
0.334092
0.685473
1.02966
1.31441
1.51475
1.63224
1.68633
1.70569
-0.522952
-0.521498
-0.52341
-0.51779
-0.494205
-0.451267
-0.392735
-0.322911
-0.239894
-0.137235
-0.0245123
0.0989039
0.343998
0.65593
0.964848
1.23073
1.43339
1.5572
1.61278
1.62896
-0.506311
-0.50459
-0.50793
-0.500889
-0.487114
-0.447283
-0.386941
-0.313172
-0.227604
-0.123827
-0.0133976
0.076561
0.282808
0.547937
0.805503
1.02908
1.20852
1.31752
1.36584
1.37833
-0.487818
-0.486492
-0.48517
-0.479551
-0.479265
-0.443403
-0.383634
-0.308396
-0.223572
-0.125806
-0.0220938
0.044562
0.204464
0.426412
0.633995
0.808834
0.9499
1.03643
1.07351
1.08268
-0.489917
-0.48807
-0.484235
-0.48504
-0.483154
-0.443387
-0.381656
-0.305874
-0.223443
-0.136207
-0.0387756
0.0161318
0.132048
0.312838
0.47675
0.607968
0.711275
0.776297
0.804577
0.811529
-0.506265
-0.505842
-0.505936
-0.516083
-0.503866
-0.452172
-0.381062
-0.302305
-0.222308
-0.146473
-0.0554404
-0.00615369
0.0729234
0.215396
0.341793
0.438022
0.511819
0.559771
0.579322
0.584073
-0.517204
-0.519677
-0.526783
-0.53402
-0.516323
-0.452884
-0.374971
-0.293858
-0.216304
-0.151133
-0.0684335
-0.0226222
0.027674
0.137342
0.232489
0.302092
0.355773
0.391395
0.404926
0.40971
-0.475157
-0.478452
-0.488552
-0.493458
-0.475419
-0.41806
-0.347434
-0.27402
-0.202304
-0.147133
-0.0763459
-0.0342171
-0.00249161
0.080902
0.150773
0.20065
0.240682
0.268267
0.278646
0.281279
-0.351467
-0.356923
-0.36321
-0.36844
-0.358393
-0.326277
-0.282247
-0.232518
-0.176772
-0.132904
-0.0777477
-0.0421406
-0.0203608
0.0445391
0.0941992
0.128685
0.157346
0.174983
0.182945
0.185267
-0.21219
-0.21477
-0.218301
-0.222332
-0.219321
-0.209643
-0.194026
-0.1716
-0.139182
-0.109304
-0.0723334
-0.0442758
-0.0283586
0.0212398
0.0552383
0.0786762
0.0964675
0.1065
0.110395
0.111028
-0.0938874
-0.0952579
-0.0979442
-0.103207
-0.107903
-0.112202
-0.113918
-0.109751
-0.097057
-0.0821806
-0.061239
-0.0419353
-0.0279571
0.00586699
0.0282139
0.0428807
0.0523623
0.0566852
0.0573584
0.0565649
-0.0128657
-0.0138276
-0.0158479
-0.0221049
-0.0332239
-0.0455344
-0.0551922
-0.0604622
-0.0599736
-0.056845
-0.0469803
-0.0356586
-0.0251088
-0.00414582
0.00904984
0.0167025
0.0204215
0.0207798
0.0194592
0.0181756
0.0310611
0.0304573
0.0287734
0.0226889
0.0106365
-0.00416354
-0.0172796
-0.027291
-0.0327381
-0.0363069
-0.0327135
-0.0273149
-0.0215201
-0.0108216
-0.00484874
-0.00220641
-0.00159126
-0.00297532
-0.00514064
-0.00657235
0.0511534
0.0506159
0.0490607
0.0435949
0.0327921
0.0187018
0.00514475
-0.00666425
-0.0146901
-0.021279
-0.0204633
-0.019067
-0.01789
-0.0139764
-0.0130321
-0.0134726
-0.0148124
-0.0171477
-0.0193144
-0.0206659
0.0565777
0.0561624
0.0549084
0.0504808
0.0416603
0.0297164
0.0173542
0.00555829
-0.0031989
-0.0109292
-0.0113935
-0.0119191
-0.0141102
-0.0140817
-0.0156232
-0.0176458
-0.0201803
-0.0229396
-0.0249613
-0.0262332
0.0544337
0.0541302
0.0531598
0.0497926
0.0430844
0.0337254
0.0233664
0.0127329
0.0043512
-0.00366207
-0.00520341
-0.00683278
-0.0101203
-0.0116746
-0.0142182
-0.0171352
-0.0201242
-0.0227117
-0.0244651
-0.0256175
0.0489793
0.0487747
0.0480657
0.0456116
0.0407106
0.0337527
0.0255788
0.0167114
0.00951106
0.0016677
-0.000625845
-0.00306519
-0.00603981
-0.00765456
-0.0105571
-0.0137932
-0.0166744
-0.0188258
-0.0201225
-0.0211249
0.0423143
0.0421956
0.0417067
0.040006
0.0365595
0.0315464
0.0254337
0.0184341
0.012723
0.00537908
0.00286699
0.000669118
-0.00197648
-0.00390637
-0.00671166
-0.00942894
-0.0117106
-0.0133377
-0.0141776
-0.0150581
0.0354342
0.0353579
0.0350087
0.0338137
0.0313924
0.0278095
0.0233286
0.0179169
0.0138732
0.00769562
0.00549084
0.00396293
0.00161944
-0.000540963
-0.00325314
-0.00557941
-0.00728539
-0.00835829
-0.0087477
-0.00950796
0.02902
0.0289817
0.0287674
0.027972
0.0262706
0.0236338
0.0202595
0.0159865
0.0132406
0.00842702
0.00686245
0.00572073
0.00365022
0.00193777
-0.000387485
-0.00228624
-0.00353734
-0.00436955
-0.00458888
-0.0052352
0.0229627
0.0229374
0.022784
0.0222721
0.0211814
0.0194055
0.0170117
0.0137486
0.0118249
0.00811887
0.00688929
0.00595509
0.00413648
0.00284655
0.00125066
0.000158709
-0.000660043
-0.00128501
-0.00136972
-0.00190616
0.0174603
0.0174219
0.0173066
0.0169699
0.0162826
0.0151856
0.0136831
0.0113435
0.0100825
0.0071057
0.00603117
0.00511722
0.00339107
0.0026989
0.00184382
0.00155538
0.00131657
0.00103858
0.000990259
0.000474169
0.0128363
0.0127947
0.0127238
0.0125406
0.0121418
0.0114367
0.0104956
0.00881251
0.00810385
0.00556724
0.00469561
0.00361083
0.00191101
0.00192682
0.00194281
0.00214783
0.00228177
0.00221444
0.00221013
0.00175631
0.00873584
0.00869971
0.00864974
0.00852385
0.00829862
0.00789758
0.00738551
0.00618124
0.00596702
0.00391503
0.00324742
0.00210396
0.0006657
0.000989041
0.0013402
0.00182359
0.00223563
0.00232073
0.00231226
0.00186535
0.00500738
0.00497027
0.00495105
0.00491406
0.00480899
0.00455164
0.00440044
0.00359963
0.00370473
0.00217244
0.00194617
0.00102159
-5.15496e-05
0.000610884
0.000661707
0.000915314
0.00135892
0.0015959
0.00175976
0.00144161
0.00179949
0.00178715
0.00180006
0.00182559
0.00181788
0.00167053
0.00168128
0.00119817
0.00141556
0.000546219
0.000902204
0.000702206
0.000121551
0.000675068
-7.16663e-05
-0.000651634
-0.00112101
-0.00140407
-0.00104233
-0.00103346
-1.07288
-0.233288
0.0367642
0.312947
0.494475
0.650382
0.776548
0.905175
1.04663
1.12916
-0.0927856
0.313852
0.330269
0.518483
0.642301
0.753413
0.849032
0.934238
0.961636
0.919621
0.283978
0.497724
0.532755
0.669123
0.754942
0.83468
0.900462
0.949839
0.951915
0.966
0.513322
0.656189
0.691228
0.792951
0.849812
0.907454
0.952236
0.984567
0.993613
1.01729
0.691185
0.792529
0.822282
0.889871
0.934302
0.975298
1.0074
1.03166
1.04143
1.07301
0.834418
0.903203
0.933522
0.976402
1.01247
1.04259
1.06687
1.08759
1.10171
1.13
0.953557
1.00411
1.02967
1.05764
1.08529
1.10906
1.12901
1.14825
1.16313
1.18964
1.05732
1.09432
1.11539
1.13604
1.15683
1.17621
1.19361
1.21172
1.2266
1.25026
1.1513
1.18041
1.19674
1.21201
1.22811
1.24417
1.25972
1.27663
1.29025
1.31257
1.23956
1.26002
1.27487
1.28803
1.3016
1.31537
1.32887
1.34346
1.35501
1.37465
1.325
1.34078
1.35461
1.36642
1.37833
1.38997
1.40111
1.41279
1.42046
1.43727
1.41023
1.42277
1.43648
1.44823
1.45887
1.46866
1.47749
1.48575
1.48932
1.50056
1.49897
1.50979
1.52326
1.5328
1.54037
1.54766
1.55485
1.56134
1.56243
1.5698
1.59739
1.60199
1.61018
1.61494
1.61833
1.62282
1.62881
1.63649
1.64038
1.65026
1.71069
1.69759
1.6903
1.68458
1.68185
1.68319
1.68955
1.70191
1.71673
1.74639
1.83269
1.77665
1.74563
1.72844
1.72021
1.72015
1.72897
1.74858
1.78041
1.84966
)
;

boundaryField
{
    wall-4
    {
        type            zeroGradient;
    }
    pressure-outlet-7
    {
        type            fixedValue;
        value           uniform 0;
    }
    velocity-inlet-6
    {
        type            zeroGradient;
    }
    velocity-inlet-5
    {
        type            zeroGradient;
    }
    frontAndBackPlanes
    {
        type            empty;
    }
}


// ************************************************************************* //
