/*--------------------------------*- C++ -*----------------------------------*\
| =========                 |                                                 |
| \\      /  F ield         | OpenFOAM: The Open Source CFD Toolbox           |
|  \\    /   O peration     | Version:  v2012                                 |
|   \\  /    A nd           | Website:  www.openfoam.com                      |
|    \\/     M anipulation  |                                                 |
\*---------------------------------------------------------------------------*/
FoamFile
{
    version     2.0;
    format      ascii;
    class       surfaceScalarField;
    location    "53";
    object      phi;
}
// * * * * * * * * * * * * * * * * * * * * * * * * * * * * * * * * * * * * * //

dimensions      [0 3 -1 0 0 0 0];
oriented        oriented;


internalField   nonuniform List<scalar> 
4262
(
0.107141
0.470847
0.0955784
0.705149
0.0694051
0.858476
0.0474252
1.02074
0.0310648
1.21488
0.0198462
1.44944
0.0124296
1.73328
0.00722576
2.07624
0.00331142
2.48916
-0.000388974
2.98599
-0.00407066
2.98597
-0.00790901
2.48908
-0.0129496
2.07608
-0.0201365
1.73305
-0.0311405
1.44922
-0.0472263
1.2146
-0.068973
1.02051
-0.0952253
0.858555
-0.107076
0.705437
0.470912
0.112878
0.357969
0.135297
0.682729
0.120393
0.873381
0.0977982
1.04334
0.0745356
1.23814
0.0528435
1.47113
0.0344629
1.75166
0.0202432
2.09046
0.00890401
2.5005
-0.00124259
2.99614
-0.011318
2.99605
-0.0224954
2.50026
-0.0365634
2.09014
-0.0548385
1.75133
-0.0765478
1.47093
-0.100199
1.23825
-0.123338
1.04365
-0.136934
0.872151
-0.113534
0.682036
0.357378
0.092053
0.265916
0.124991
0.649791
0.121144
0.877228
0.104947
1.05954
0.0863046
1.25678
0.0671581
1.49028
0.0482141
1.7706
0.0301705
2.1085
0.0136658
2.517
-0.00217791
3.01198
-0.0178142
3.01169
-0.0338792
2.51632
-0.0514154
2.10768
-0.0699086
1.76982
-0.0883451
1.48937
-0.105673
1.25558
-0.119879
1.05786
-0.125216
0.877488
-0.0923277
0.649148
0.26505
0.0640479
0.201868
0.104935
0.608904
0.106703
0.87546
0.0952847
1.07095
0.0813622
1.2707
0.06662
1.50502
0.0504979
1.78673
0.0333654
2.12564
0.0156825
2.53468
-0.00302805
3.03069
-0.0215718
3.03023
-0.0388061
2.53356
-0.0552888
2.12416
-0.0705891
1.78512
-0.0844811
1.50326
-0.0981872
1.26929
-0.109935
1.0696
-0.106991
0.874544
-0.0648914
0.607048
0.200159
0.0374655
0.164403
0.0806971
0.565672
0.0910313
0.865126
0.0838142
1.07817
0.0712115
1.28331
0.0593831
1.51685
0.0463975
1.79971
0.0314655
2.14057
0.0145201
2.55163
-0.00456636
3.04978
-0.0231448
3.04881
-0.0391332
2.54955
-0.0530943
2.13813
-0.065234
1.79726
-0.0765072
1.51453
-0.0884613
1.28124
-0.0948624
1.076
-0.0830755
0.862758
-0.0383459
0.562318
0.161813
0.0194929
0.14491
0.0572987
0.527866
0.0727785
0.849646
0.0707575
1.08019
0.062006
1.29206
0.0511482
1.52771
0.0399528
1.81091
0.0273238
2.1532
0.0123457
2.56661
-0.00527478
3.0674
-0.022771
3.0663
-0.0371764
2.56395
-0.0487176
2.14967
-0.0586702
1.80721
-0.068496
1.52436
-0.0761757
1.28892
-0.0770368
1.07687
-0.0599409
0.845662
-0.0203544
0.522732
0.141459
0.0106488
0.134261
0.0424148
0.4961
0.0585204
0.833541
0.0588088
1.0799
0.0527169
1.29815
0.0434349
1.53699
0.0331404
1.8212
0.0217886
2.16455
0.00841467
2.57998
-0.00763106
3.08345
-0.0229851
3.08166
-0.0348994
2.57587
-0.0448068
2.15957
-0.0536209
1.81603
-0.0614912
1.53223
-0.0660383
1.29347
-0.0641274
1.07496
-0.0458064
0.827341
-0.0116747
0.4886
0.129784
0.00659993
0.127661
0.0330751
0.469625
0.0494317
0.817184
0.0509766
1.07836
0.0458686
1.30326
0.0374939
1.54536
0.0278974
1.8308
0.0170773
2.17537
0.00514145
2.59192
-0.00856507
3.09715
-0.0220053
3.0951
-0.0329025
2.58676
-0.0420569
2.16873
-0.0498546
1.82382
-0.0565201
1.5389
-0.0598061
1.29675
-0.0562088
1.07136
-0.0371358
0.808268
-0.00785035
0.459315
0.121934
0.00476852
0.122893
0.0267055
0.447688
0.0426011
0.801289
0.0447851
1.07617
0.0401985
1.30784
0.0325564
1.553
0.0234714
1.83988
0.0130358
2.1858
0.00134401
2.60361
-0.0117747
3.11027
-0.0236837
3.10701
-0.0333469
2.59643
-0.0416012
2.17698
-0.0484557
1.83068
-0.0538689
1.54431
-0.056211
1.2991
-0.0513222
1.06647
-0.0317958
0.788741
-0.00630535
0.433824
0.115628
0.00379231
0.1191
0.0218539
0.429627
0.0371274
0.786015
0.0399551
1.07335
0.0356382
1.31216
0.0283375
1.5603
0.0195817
1.84864
0.00951806
2.19587
-0.00166107
2.61479
-0.0135978
3.12221
-0.0249824
3.11839
-0.0343312
2.60578
-0.0418719
2.18452
-0.0481081
1.83691
-0.0529547
1.54916
-0.0542161
1.30036
-0.0478556
1.06011
-0.0280428
0.768928
-0.00569496
0.411477
0.109933
0.00306915
0.116031
0.0176254
0.41507
0.0316778
0.771963
0.0348372
1.07019
0.0309022
1.3161
0.0239223
1.56728
0.0154938
1.85707
0.0056889
2.20567
-0.0055318
2.62601
-0.017927
3.1346
-0.0288553
3.12932
-0.0370337
2.61395
-0.0436105
2.1911
-0.048787
1.84209
-0.0524586
1.55283
-0.0526616
1.30056
-0.0450652
1.05251
-0.025239
0.749102
-0.0054131
0.391651
0.10452
0.0024337
0.113598
0.014031
0.403473
0.0267626
0.759231
0.029976
1.06697
0.0260966
1.31998
0.0191938
1.57419
0.0108066
1.86546
0.00112331
2.21536
-0.00959551
2.63673
-0.0210884
3.1461
-0.0315721
3.1398
-0.0396875
2.62207
-0.0454781
2.19689
-0.0497891
1.8464
-0.0525864
1.55563
-0.0520201
1.29999
-0.0430156
1.04351
-0.0231578
0.729244
-0.00522482
0.373718
0.0992954
0.00173232
0.111865
0.0106516
0.394554
0.0215706
0.748312
0.0243101
1.06423
0.0203679
1.32392
0.0135005
1.58105
0.00520409
1.87375
-0.00422887
2.22479
-0.0150126
2.64751
-0.0268881
3.15797
-0.0367547
3.14967
-0.0432127
2.62853
-0.0479468
2.20162
-0.0515384
1.84999
-0.0534063
1.55749
-0.0520387
1.29863
-0.0418953
1.03336
-0.0218839
0.709233
-0.00516728
0.357001
0.0941281
0.000902523
0.110963
0.00730084
0.388155
0.0166776
0.738935
0.0190832
1.06183
0.0147384
1.32826
0.00741196
1.58838
-0.00114474
1.88231
-0.010736
2.23438
-0.0211102
2.65789
-0.0320049
3.16887
-0.0410875
3.15875
-0.0472477
2.63469
-0.0511456
2.20552
-0.0539375
1.85279
-0.0548842
1.55844
-0.0524881
1.29623
-0.0411027
1.02198
-0.0208859
0.689016
-0.00505887
0.341174
0.0890693
0.00018203
0.110781
0.00434628
0.383991
0.0112458
0.732036
0.0124431
1.06063
0.00782312
1.33288
0.000359847
1.59584
-0.00870559
1.89137
-0.0186885
2.24436
-0.0294504
2.66865
-0.0403672
3.17978
-0.0487264
3.16711
-0.0533133
2.63927
-0.0560864
2.2083
-0.0580746
1.85477
-0.0581218
1.55849
-0.054336
1.29245
-0.041346
1.00899
-0.0205818
0.668252
-0.00510779
0.3257
0.0839615
-0.000747583
0.111528
0.000719388
0.382524
0.00571207
0.727043
0.00634106
1.06
0.00100773
1.33822
-0.00738553
1.60424
-0.0170104
1.901
-0.027334
2.25469
-0.0379725
2.67929
-0.0480967
3.18991
-0.0553706
3.17439
-0.0595635
2.64347
-0.0617326
2.21046
-0.0627536
1.85579
-0.0618014
1.55753
-0.0565003
1.28714
-0.0419548
0.994443
-0.020608
0.646905
-0.00521522
0.310307
0.0787463
-0.00158708
0.113115
-0.00234938
0.383287
-0.000264622
0.724958
-0.00182795
1.06157
-0.0079094
1.3443
-0.0165819
1.61291
-0.0269034
1.91132
-0.0383168
2.2661
-0.0499422
2.69091
-0.0602094
3.20017
-0.0669125
3.18109
-0.0699129
2.64647
-0.0706353
2.21119
-0.0701585
1.85532
-0.0674939
1.55487
-0.0601886
1.27984
-0.0436797
0.977935
-0.021247
0.624473
-0.00545255
0.294513
0.0732937
-0.00296907
0.116085
-0.00611336
0.386431
-0.00755445
0.726399
-0.0103071
1.06432
-0.0174771
1.35147
-0.0275375
1.62297
-0.0388087
1.92259
-0.0506305
2.27792
-0.0621585
2.70244
-0.0719721
3.20999
-0.0775183
3.18664
-0.0793198
2.64827
-0.078882
2.21075
-0.077513
1.85395
-0.0740392
1.5514
-0.0648984
1.2707
-0.0462113
0.959247
-0.022367
0.600628
-0.00581499
0.277961
0.0674787
-0.00426013
0.120345
-0.0103447
0.392515
-0.0152362
0.731291
-0.021181
1.07026
-0.0296751
1.35996
-0.0407206
1.63402
-0.0531769
1.93505
-0.0664852
2.29123
-0.0793837
2.71534
-0.0894123
3.22002
-0.0936885
3.19091
-0.0940998
2.64868
-0.0927156
2.20937
-0.0891104
1.85034
-0.0829592
1.54525
-0.0712095
1.25895
-0.0497384
0.937776
-0.0239746
0.574864
-0.0062678
0.260254
0.0612109
-0.00572074
0.126065
-0.0153651
0.40216
-0.0241843
0.74011
-0.0329095
1.07899
-0.0435512
1.3706
-0.0567133
1.64718
-0.0707651
1.9491
-0.084758
2.30522
-0.097436
2.72802
-0.106916
3.2295
-0.110411
3.19441
-0.109063
2.64733
-0.104666
2.20497
-0.100179
1.84586
-0.0932395
1.53831
-0.0788375
1.24455
-0.0541347
0.913074
-0.0260187
0.546748
-0.00681167
0.241047
0.0543993
-0.00798811
0.134053
-0.0221116
0.416283
-0.0362892
0.754288
-0.0484099
1.09111
-0.0609335
1.38313
-0.0759579
1.6622
-0.0919955
1.96514
-0.108124
2.32135
-0.122476
2.74237
-0.132236
3.23926
-0.133447
3.19562
-0.129507
2.64339
-0.124096
2.19956
-0.116532
1.83829
-0.10591
1.52768
-0.087974
1.22661
-0.0595202
0.88462
-0.0284099
0.515638
-0.00739174
0.220029
0.0470075
-0.0104442
0.144498
-0.0294108
0.43525
-0.0496698
0.774547
-0.0665732
1.10801
-0.0822551
1.39881
-0.100066
1.68001
-0.118622
1.98369
-0.13616
2.33889
-0.150098
2.75631
-0.15735
3.24651
-0.156834
3.1951
-0.151021
2.63758
-0.142566
2.1911
-0.13324
1.82897
-0.120734
1.51518
-0.0986969
1.20457
-0.0655663
0.851489
-0.0309883
0.48106
-0.00795876
0.196999
0.0390487
-0.0151163
0.159614
-0.041598
0.461732
-0.0687008
0.801649
-0.0907461
1.13006
-0.11035
1.41841
-0.131911
1.70157
-0.153036
2.00482
-0.172153
2.35801
-0.18631
2.77046
-0.192554
3.25275
-0.188314
3.19086
-0.178947
2.62821
-0.168206
2.18036
-0.1554
1.81616
-0.137995
1.49777
-0.111066
1.17764
-0.0726377
0.813061
-0.0338442
0.442267
-0.00849114
0.171646
0.0305576
-0.0194283
0.179042
-0.0551873
0.497491
-0.0923772
0.838839
-0.121908
1.15959
-0.146728
1.44323
-0.171882
1.72673
-0.195067
2.028
-0.214188
2.37713
-0.226556
2.78283
-0.228644
3.25484
-0.22088
3.1831
-0.208212
2.61554
-0.193322
2.16547
-0.177845
1.80068
-0.157392
1.47732
-0.124401
1.14465
-0.079588
0.768248
-0.0363266
0.399005
-0.008711
0.144031
0.0218466
-0.0325028
0.211545
-0.0815804
0.546568
-0.128853
0.886112
-0.164928
1.19566
-0.195472
1.47378
-0.225007
1.75626
-0.249461
2.05246
-0.268211
2.39588
-0.278293
2.79291
-0.275964
3.25251
-0.261955
3.16909
-0.244456
2.59804
-0.227103
2.14812
-0.207246
1.78083
-0.179903
1.44997
-0.139988
1.10474
-0.0878854
0.716146
-0.0389606
0.35008
-0.00875646
0.113826
0.0130902
-0.0469452
0.25849
-0.120386
0.620009
-0.183317
0.949044
-0.227834
1.24018
-0.264212
1.51016
-0.29435
1.7864
-0.316396
2.0745
-0.330339
2.40982
-0.333478
2.79605
-0.324426
3.24346
-0.305737
3.1504
-0.284002
2.57631
-0.260602
2.12472
-0.236182
1.75641
-0.204379
1.41817
-0.155285
1.05565
-0.0935623
0.654423
-0.0396058
0.296124
-0.00865973
0.0828805
0.00443042
-0.0339168
0.292407
-0.0972112
0.683303
-0.155548
1.00738
-0.202623
1.28726
-0.245105
1.55264
-0.28284
1.82414
-0.317742
2.10941
-0.348947
2.44103
-0.372884
2.81999
-0.382945
3.25352
-0.373808
3.14126
-0.354743
2.55724
-0.333493
2.10347
-0.303521
1.72643
-0.254534
1.36918
-0.184269
0.985381
-0.103681
0.573834
-0.0405869
0.23303
-0.0091017
0.0513953
-0.00467129
-0.0128625
0.305269
-0.0479216
0.718362
-0.0893433
1.0488
-0.128479
1.32639
-0.167268
1.59143
-0.201434
1.8583
-0.232837
2.14081
-0.259062
2.46725
-0.275264
2.83619
-0.275814
3.25407
-0.263194
3.12864
-0.243563
2.53761
-0.214076
2.07398
-0.179035
1.69139
-0.139018
1.32917
-0.0895509
0.935915
-0.0414654
0.525748
-0.0140323
0.205597
-0.00331492
0.0406779
-0.0079862
9.91341e-05
0.30517
-0.0248692
0.743331
-0.0545435
1.07848
-0.0844983
1.35635
-0.115606
1.62253
-0.145792
1.88849
-0.173298
2.16832
-0.195517
2.48947
-0.209036
2.84971
-0.211173
3.25621
-0.195732
3.1132
-0.166877
2.50876
-0.13759
2.04469
-0.105289
1.65909
-0.066749
1.29063
-0.0289722
0.898138
-0.00425087
0.501027
0.00164583
0.1997
0.000315816
0.0420079
-0.00767039
0.000746774
0.304424
-0.0125362
0.756614
-0.0340038
1.09994
-0.0586593
1.381
-0.0844395
1.64831
-0.109735
1.91378
-0.132848
2.19143
-0.151335
2.50796
-0.161515
2.85989
-0.157347
3.25204
-0.136388
3.09224
-0.110744
2.48312
-0.0808198
2.01477
-0.0478297
1.6261
-0.0188597
1.26166
0.00299715
0.876281
0.0126045
0.49142
0.00895275
0.203352
0.0025272
0.0484335
-0.00514319
0.00390241
0.300521
-0.00562403
0.76614
-0.0235507
1.11787
-0.0440281
1.40148
-0.0654775
1.66976
-0.0868726
1.93518
-0.10705
2.2116
-0.123411
2.52432
-0.132342
2.86882
-0.12815
3.24785
-0.110064
3.07416
-0.0838294
2.45688
-0.0526358
1.98358
-0.0243668
1.59783
0.00325753
1.23403
0.0222189
0.857319
0.0238977
0.489741
0.0140639
0.213186
0.0040366
0.0584607
-0.00110659
0.00519454
0.295327
-0.000865912
0.772201
-0.0168508
1.13386
-0.0351684
1.4198
-0.05432
1.68891
-0.0732711
1.95413
-0.0909825
2.22932
-0.105081
2.53842
-0.111844
2.87558
-0.10581
3.24182
-0.0873571
3.0557
-0.0620048
2.43153
-0.0358253
1.9574
-0.00737139
1.56938
0.0138906
1.21277
0.0257278
0.845482
0.0254894
0.489979
0.0147462
0.223929
0.00431109
0.0688959
0.00320451
0.00392828
0.291398
-0.000532986
0.776662
-0.0139534
1.14728
-0.0306733
1.43652
-0.047819
1.70606
-0.0648664
1.97118
-0.0810312
2.24548
-0.0942097
2.5516
-0.10133
2.8827
-0.0974695
3.23796
-0.0798699
3.0381
-0.0555566
2.40722
-0.0291993
1.93104
-0.00735276
1.54753
0.0133014
1.19212
0.0254047
0.833379
0.023293
0.492091
0.0136405
0.233582
0.00410009
0.0784363
0.0073046
0.00245624
0.288942
-0.00131203
0.78043
-0.013339
1.1593
-0.0282357
1.45141
-0.044404
1.72223
-0.0604548
1.98723
-0.0757431
2.26077
-0.0886393
2.56449
-0.0956902
2.88975
-0.0917338
3.234
-0.0750693
3.02144
-0.0535379
2.38568
-0.0326099
1.91011
-0.00860638
1.52353
0.0086807
1.17483
0.0183577
0.823702
0.0185544
0.491894
0.0106582
0.241478
0.00323479
0.0858597
0.0105394
0.00021812
0.288724
-0.0036352
0.784283
-0.0143047
1.16997
-0.0277453
1.46485
-0.0427911
1.73727
-0.0580851
2.00252
-0.073069
2.27575
-0.0859829
2.57741
-0.093527
2.8973
-0.0917831
3.23226
-0.0777413
3.0074
-0.0578545
2.3658
-0.0360061
1.88826
-0.0176437
1.50517
0.000601956
1.15658
0.0120933
0.812211
0.0119816
0.492006
0.00725043
0.246209
0.00230204
0.0908081
0.0128414
-0.00063307
0.289357
-0.00569301
0.789343
-0.0155574
1.17984
-0.0280794
1.47738
-0.0425077
1.7517
-0.0573903
2.01741
-0.0722207
2.29058
-0.0855059
2.59069
-0.0944202
2.90621
-0.0943716
3.23221
-0.082127
2.99515
-0.0649562
2.34863
-0.0465039
1.86981
-0.0251251
1.48379
-0.00901101
1.14047
0.00104443
0.802155
0.00473275
0.488318
0.00303496
0.247907
0.00128888
0.0925541
0.0141303
-0.00216372
0.291521
-0.00751647
0.794696
-0.0170677
1.18939
-0.0290043
1.48931
-0.0427145
1.76541
-0.0571728
2.03186
-0.072037
2.30545
-0.0859137
2.60457
-0.0959871
2.91629
-0.0975885
3.23381
-0.0883162
2.98588
-0.0724577
2.33277
-0.0525314
1.84989
-0.0361179
1.46737
-0.0188415
1.12319
-0.00614428
0.789458
-0.00196795
0.484141
-0.000522517
0.246461
6.06732e-06
0.0920255
0.0141364
-0.00355807
0.295079
-0.00927926
0.800417
-0.0184652
1.19857
-0.0299534
1.5008
-0.0432635
1.77872
-0.0574634
2.04606
-0.0724519
2.32044
-0.0870747
2.61919
-0.0987845
2.928
-0.103374
3.2384
-0.096586
2.97909
-0.081805
2.31799
-0.064767
1.83285
-0.0435878
1.44619
-0.0268502
1.10646
-0.0148411
0.777449
-0.00679253
0.476093
-0.00298767
0.242657
-0.000557073
0.0895949
0.0135793
-0.00417517
0.299254
-0.0103748
0.806617
-0.0196103
1.20781
-0.0307532
1.51194
-0.0435948
1.79156
-0.0575935
2.06006
-0.0727708
2.33561
-0.0879842
2.6344
-0.100913
2.94092
-0.107943
3.24543
-0.103742
2.97489
-0.0904801
2.30472
-0.070113
1.81248
-0.0521614
1.42824
-0.0333437
1.08764
-0.018686
0.762791
-0.0108682
0.468275
-0.00444857
0.236237
-0.00101639
0.0861628
0.0125629
-0.00441565
0.30367
-0.0113007
0.813502
-0.0204466
1.21696
-0.0313223
1.52282
-0.0439311
1.80417
-0.057744
2.07388
-0.0730023
2.35087
-0.0888535
2.65025
-0.103621
2.95569
-0.113952
3.25576
-0.112359
2.9733
-0.0995127
2.29188
-0.0817736
1.79474
-0.0578158
1.40429
-0.038294
1.06812
-0.0236769
0.748174
-0.0121456
0.456744
-0.00519553
0.229287
-0.00113792
0.0821052
0.011425
-0.0044517
0.308121
-0.011654
0.820704
-0.0208683
1.22617
-0.031523
1.53347
-0.0437944
1.81644
-0.0574471
2.08753
-0.0728292
2.36625
-0.089262
2.66669
-0.105324
2.97175
-0.117894
3.26833
-0.120025
2.97543
-0.109092
2.28095
-0.0867399
1.77239
-0.0642595
1.3818
-0.0411301
1.04499
-0.0233776
0.730422
-0.0126202
0.445986
-0.00460049
0.221267
-0.000961535
0.0784662
0.0104635
-0.00455913
0.312681
-0.0120471
0.828192
-0.0210426
1.23517
-0.0314803
1.54391
-0.0435674
1.82853
-0.0570164
2.10098
-0.0724026
2.38164
-0.08935
2.68364
-0.106813
2.98922
-0.122096
3.28361
-0.126576
2.97991
-0.116587
2.27096
-0.098587
1.75439
-0.0694348
1.35265
-0.04262
1.01817
-0.0226371
0.710439
-0.00820185
0.431551
-0.00177307
0.214838
0.000323728
0.0763694
0.0107872
-0.00456237
0.317243
-0.0119994
0.835629
-0.0208955
1.24406
-0.0310799
1.5541
-0.0428148
1.84027
-0.0560795
2.11424
-0.0715098
2.39707
-0.0888507
2.70098
-0.107374
3.00774
-0.124638
3.30088
-0.133447
2.98872
-0.126851
2.26436
-0.103854
1.73139
-0.0757513
1.32455
-0.0425817
0.985003
-0.0156823
0.683539
-0.000606363
0.416475
0.00343401
0.210798
-0.00126259
0.081066
0.00952458
-0.00459426
0.321837
-0.0120383
0.843073
-0.0206009
1.25262
-0.0304991
1.56399
-0.0420009
1.85177
-0.0550276
2.12727
-0.0703615
2.4124
-0.0880048
2.71862
-0.107484
3.02722
-0.126749
3.32014
-0.13777
2.99974
-0.133174
2.25977
-0.116584
1.7148
-0.0826407
1.29061
-0.0428635
0.945226
-0.00450543
0.645181
0.0263813
0.385588
0.037871
0.199308
0.0257332
0.0932037
0.0352578
-0.00446625
0.326303
-0.0116885
0.850296
-0.0200704
1.26101
-0.0296479
1.57357
-0.0407363
1.86286
-0.0535136
2.14005
-0.0687603
2.42765
-0.0865563
2.73642
-0.106743
3.04741
-0.127728
3.34113
-0.142066
3.01408
-0.142957
2.26066
-0.123119
1.69496
-0.0913158
1.2588
-0.0438578
0.897768
0.0047788
0.596545
0.0472787
0.343089
0.0475409
0.199046
0.0209366
0.119808
0.0561944
-0.00433345
0.330637
-0.011454
0.857416
-0.0194512
1.269
-0.0286697
1.58279
-0.0395051
1.87369
-0.051993
2.15253
-0.0670281
2.44269
-0.0849135
2.7543
-0.105679
3.06817
-0.128139
3.36358
-0.144081
3.03002
-0.147683
2.26426
-0.137429
1.68471
-0.103738
1.22511
-0.05331
0.84734
0.0193626
0.523872
0.118566
0.243886
0.193448
0.124164
0.182001
0.131255
0.238195
-0.00417797
0.334815
-0.0111102
0.864348
-0.019121
1.27701
-0.0283446
1.59201
-0.0392926
1.88464
-0.0522375
2.16548
-0.0682038
2.45865
-0.0876473
2.77374
-0.111052
3.09158
-0.137922
3.39046
-0.160412
3.05251
-0.170729
2.27458
-0.159841
1.67382
-0.130576
1.19585
-0.0729714
0.789736
-0.0164017
0.467302
-0.0681399
0.295624
-0.357383
0.413406
-0.941674
0.715547
0.900205
-1.60368
-0.00401746
0.338832
-0.010852
0.871183
-0.0185725
1.28473
-0.0276277
1.60107
-0.0385519
1.89556
-0.0516183
2.17854
-0.0679806
2.47501
-0.0883918
2.79416
-0.113672
3.11686
-0.143928
3.42071
-0.17051
3.07909
-0.185045
2.28911
-0.192777
1.68155
-0.174227
1.1773
-0.147221
0.76273
-0.239591
0.559672
-0.693236
0.749269
-1.4426
1.16277
-2.05016
1.32311
1.21683
-2.36678
-0.00378096
0.342613
-0.0102771
0.877679
-0.0178422
1.2923
-0.0267182
1.60994
-0.0374499
1.9063
-0.050589
2.19168
-0.0673584
2.49178
-0.0886293
2.81543
-0.115711
3.14394
-0.14967
3.45467
-0.183231
3.11265
-0.208468
2.31435
-0.216689
1.68977
-0.205985
1.16659
-0.292128
0.848872
-0.753449
1.02099
-1.54487
1.54069
-2.11018
1.72808
-2.34937
1.5623
1.33108
-2.46363
-0.00362943
0.346243
-0.00985976
0.883909
-0.0170534
1.29949
-0.0256927
1.61858
-0.03633
1.91693
-0.0495266
2.20488
-0.0665838
2.50884
-0.0886944
2.83754
-0.117597
3.17284
-0.155214
3.49229
-0.193961
3.1514
-0.223885
2.34427
-0.251684
1.71757
-0.331634
1.24654
-0.685221
1.20246
-1.43743
1.77321
-2.02703
2.13028
-2.26672
1.96777
-2.37989
1.67548
1.39531
-2.44412
-0.00332377
0.349566
-0.00910708
0.889693
-0.0160574
1.30644
-0.0244499
1.62698
-0.0348927
1.92738
-0.0480701
2.21806
-0.0653894
2.52616
-0.0881951
2.86034
-0.118736
3.20338
-0.159912
3.53346
-0.206389
3.19787
-0.250432
2.38832
-0.292413
1.75955
-0.473183
1.42731
-1.09375
1.82303
-1.78784
2.4673
-2.10837
2.45081
-2.25654
2.11593
-2.33857
1.75751
1.46116
-2.40442
-0.00328611
0.352853
-0.0090561
0.895463
-0.0158888
1.31328
-0.0243076
1.63539
-0.0350618
1.93813
-0.0485741
2.23157
-0.0663997
2.54399
-0.090193
2.88414
-0.122608
3.2358
-0.167589
3.57845
-0.219988
3.25027
-0.266099
2.43443
-0.355727
1.84918
-0.747167
1.81875
-1.49004
2.5659
-1.96315
2.9404
-2.16299
2.65065
-2.26917
2.22212
-2.34623
1.83457
1.52464
-2.4097
-0.0033486
0.356201
-0.00926861
0.901383
-0.0165808
1.32059
-0.0254747
1.64429
-0.0366746
1.94933
-0.0508079
2.2457
-0.0695201
2.5627
-0.0945379
2.90915
-0.128907
3.27017
-0.177599
3.62714
-0.234592
3.30727
-0.297169
2.497
-0.486383
2.0384
-1.04631
2.37868
-1.67803
3.19762
-1.95353
3.21591
-2.10039
2.79751
-2.21415
2.33588
-2.30765
1.92806
1.58627
-2.36928
-0.00344304
0.359644
-0.00981539
0.907755
-0.0174159
1.32819
-0.0267664
1.65364
-0.0385884
1.96115
-0.0534406
2.26056
-0.0730421
2.5823
-0.0994057
2.93552
-0.135833
3.30659
-0.188489
3.67979
-0.251384
3.37016
-0.337047
2.58267
-0.618492
2.31984
-1.26362
3.0238
-1.75272
3.68673
-1.95973
3.42292
-2.09957
2.93735
-2.22324
2.45955
-2.33362
2.03845
1.64483
-2.39218
-0.00337999
0.363024
-0.00985432
0.914229
-0.0181043
1.33644
-0.0280627
1.6636
-0.0403668
1.97346
-0.0558736
2.27606
-0.0764195
2.60285
-0.104037
2.96313
-0.142331
3.34489
-0.197708
3.73517
-0.264561
3.43701
-0.389258
2.70736
-0.775693
2.70628
-1.41012
3.65823
-1.76287
4.03948
-1.93571
3.59576
-2.03756
3.0392
-2.12602
2.54801
-2.19321
2.10564
1.6376
-2.18598
-0.00335479
0.366379
-0.0103605
0.921235
-0.0188757
1.34495
-0.0293217
1.67404
-0.0423662
1.9865
-0.0586774
2.29237
-0.0801608
2.62433
-0.109154
2.99213
-0.149413
3.38515
-0.206829
3.79259
-0.285674
3.51586
-0.455621
2.87731
-0.906938
3.15759
-1.46251
4.2138
-1.72432
4.30128
-1.87599
3.74744
-1.96914
3.13234
-1.97051
2.54938
-1.90141
2.03654
1.60212
-1.86594
-0.00312836
0.369507
-0.0100296
0.928136
-0.0192663
1.35419
-0.0303215
1.6851
-0.0437166
1.9999
-0.0604096
2.30907
-0.0823373
2.64626
-0.111671
3.02146
-0.152207
3.42568
-0.208757
3.84914
-0.293857
3.60096
-0.498222
3.08168
-0.988146
3.64752
-1.42956
4.65521
-1.59466
4.46639
-1.66173
3.8145
-1.66617
3.13678
-1.5185
2.40172
-1.01838
1.53641
0.583746
-0.00266838
0.372176
-0.0103227
0.935791
-0.0197463
1.36361
-0.0313888
1.69674
-0.0459486
2.01446
-0.0640791
2.3272
-0.0878917
2.67007
-0.12002
3.05359
-0.164657
3.47032
-0.227834
3.91231
-0.331175
3.7043
-0.58557
3.33607
-1.12427
4.18622
-1.48247
5.01341
-1.58165
4.56557
-1.57947
3.81233
-1.47577
3.03308
-1.23663
2.16257
-0.632714
0.932495
-0.0489676
-0.00228001
0.374456
-0.00923653
0.942747
-0.0195058
1.37388
-0.0321117
1.70935
-0.0474873
2.02983
-0.0668257
2.34654
-0.0925047
2.69575
-0.127223
3.08831
-0.176027
3.51912
-0.245315
3.9816
-0.367584
3.82657
-0.681684
3.65017
-1.24173
4.74627
-1.50299
5.27466
-1.56127
4.62386
-1.53933
3.79038
-1.33724
2.83099
-0.7839
1.60923
-0.10921
0.257806
-0.158178
-0.00167124
0.376127
-0.00907522
0.950151
-0.0191664
1.38398
-0.0321916
1.72237
-0.0486843
2.04632
-0.0694664
2.36732
-0.097083
2.72337
-0.134766
3.12599
-0.187375
3.57173
-0.264685
4.05891
-0.413149
3.97503
-0.785989
4.02301
-1.32101
5.28129
-1.497
5.45065
-1.5283
4.65516
-1.44013
3.70222
-1.10292
2.49378
-0.314009
0.82032
0.0250786
-0.081282
-0.133099
-0.000448509
0.376575
-0.00653049
0.956233
-0.0174575
1.3949
-0.0315339
1.73645
-0.0486756
2.06347
-0.0705375
2.38918
-0.0999021
2.75273
-0.139849
3.16594
-0.195221
3.6271
-0.281225
4.14492
-0.455878
4.14968
-0.893771
4.46091
-1.36494
5.75246
-1.482
5.56771
-1.48469
4.65785
-1.26026
3.47779
-0.687945
1.92146
-0.0626282
0.195003
0.0306134
-0.174524
-0.102486
0.000308583
0.376267
-0.00507695
0.961619
-0.0153653
1.40519
-0.0295806
1.75066
-0.0475367
2.08142
-0.0707404
2.41238
-0.101837
2.78383
-0.144289
3.20839
-0.202747
3.68556
-0.297882
4.24005
-0.49896
4.35076
-0.986985
4.94893
-1.36173
6.1272
-1.42539
5.63137
-1.37924
4.6117
-1.09027
3.18882
-0.323626
1.15482
0.00501304
-0.133637
0.015306
-0.184817
-0.0871799
0.003327
0.37294
0.000452453
0.964493
-0.0109171
1.41656
-0.026194
1.76594
-0.0443358
2.09956
-0.0683826
2.43643
-0.100723
2.81617
-0.14467
3.25234
-0.205681
3.74657
-0.308853
4.34322
-0.5363
4.57821
-1.04874
5.46137
-1.32405
6.40252
-1.36518
5.6725
-1.22561
4.47214
-0.773943
2.73715
-0.0703161
0.45119
0.0453289
-0.249282
0.0248378
-0.164325
-0.0623421
0.00478015
0.36816
0.003122
0.966151
-0.00630909
1.42599
-0.0203431
1.77997
-0.038756
2.11798
-0.0637867
2.46146
-0.0972272
2.84961
-0.142974
3.29808
-0.206521
3.81012
-0.317732
4.45443
-0.574913
4.83539
-1.06989
5.95634
-1.26072
6.59335
-1.27005
5.68183
-1.05072
4.25281
-0.460642
2.14707
-0.0158366
0.00638448
-0.00440619
-0.260712
0.00627283
-0.175004
-0.0560692
0.00865213
0.359508
0.0100553
0.964748
0.00241019
1.43364
-0.0116968
1.79408
-0.0301105
2.13639
-0.0552315
2.48658
-0.0888459
2.88322
-0.134475
3.34371
-0.199467
3.87511
-0.316631
4.5716
-0.59512
5.11388
-1.04809
6.40931
-1.16926
6.71453
-1.15556
5.66813
-0.897599
3.99484
-0.264469
1.51394
-0.0702742
-0.187811
-0.037877
-0.293109
-0.0131988
-0.199683
-0.069268
0.0117664
0.347741
0.0169304
0.959584
0.0124272
1.43814
0.00168116
1.80483
-0.0173117
2.15538
-0.0420397
2.51131
-0.0753161
2.9165
-0.121335
3.38973
-0.186938
3.94072
-0.308287
4.69295
-0.594277
5.39987
-0.980413
6.79545
-1.04982
6.78393
-0.978657
5.59697
-0.681091
3.69728
-0.0780819
0.910931
0.00763883
-0.273531
-0.00656125
-0.278909
-0.00366178
-0.202582
-0.0729298
0.0184286
0.329313
0.0300517
0.947961
0.0282683
1.43992
0.0171295
1.81597
-0.000419736
2.17293
-0.0225597
2.53345
-0.0542632
2.9482
-0.0981827
3.43365
-0.161819
4.00435
-0.282038
4.81317
-0.5584
5.67623
-0.868332
7.10538
-0.902922
6.81852
-0.807375
5.50142
-0.456165
3.34607
0.0529352
0.401831
0.0655742
-0.28617
0.0473418
-0.260677
0.0174366
-0.172677
-0.0554932
0.0244849
0.304828
0.0431642
0.929282
0.047007
1.43608
0.0403145
1.82266
0.0272368
2.18601
0.0055354
2.55515
-0.0240919
2.97783
-0.0654523
3.47501
-0.125952
4.06485
-0.240451
4.92767
-0.485161
5.92094
-0.708229
7.32845
-0.738414
6.84871
-0.62705
5.39006
-0.304688
3.02371
-0.0066978
0.10384
0.0162992
-0.309167
0.0312232
-0.275601
0.0159608
-0.157415
-0.0395323
0.0348125
0.270015
0.0647618
0.899332
0.0752268
1.42562
0.0716278
1.82626
0.0613275
2.19631
0.0431304
2.57335
0.0170843
3.00387
-0.0197873
3.51188
-0.0731725
4.11824
-0.170119
5.02461
-0.367097
6.11792
-0.520576
7.48192
-0.551997
6.88013
-0.456257
5.29432
-0.173697
2.74115
-0.0501126
-0.0197439
-0.0277101
-0.33157
8.70525e-05
-0.303398
0.0046501
-0.161978
-0.0348822
0.0443084
0.225707
0.0871892
0.856452
0.108228
1.40458
0.113156
1.82133
0.108565
2.2009
0.0944589
2.58745
0.0741361
3.0242
0.043771
3.54225
-0.00531962
4.16733
-0.0762881
5.09558
-0.207945
6.24958
-0.290692
7.56467
-0.311027
6.90046
-0.248514
5.2318
-0.0350132
2.52764
-0.0598119
0.00505484
-0.0694086
-0.321973
-0.0282173
-0.344589
0.0118062
-0.202001
-0.023076
0.0569427
0.168764
0.11892
0.794475
0.154588
1.36891
0.16634
1.80958
0.167127
2.20011
0.158503
2.59608
0.145456
3.03725
0.125573
3.56213
0.0950186
4.19788
0.053732
5.13687
0.0103572
6.29295
-0.0254557
7.60049
-0.0231951
6.8982
-0.0600276
5.26864
-0.0766907
2.54431
-0.309056
0.23742
-0.32128
-0.309749
-0.206574
-0.459296
-0.0460965
-0.362478
-0.0691725
0.0597308
0.109033
0.149063
0.705142
0.205997
1.31197
0.233645
1.78193
0.244962
2.1888
0.244013
2.59703
0.239165
3.04209
0.230058
3.57124
0.217709
4.21023
0.203518
5.15106
0.275555
6.22091
0.336456
7.53958
0.283709
6.95095
0.0648307
5.48751
-0.292284
2.90142
-0.667341
0.612477
-0.669966
-0.307123
-0.504643
-0.624619
-0.229851
-0.63727
-0.299023
0.050704
0.0583294
0.180682
0.575165
0.273325
1.21933
0.316988
1.73827
0.337537
2.16825
0.346484
2.58808
0.349401
3.03918
0.355635
3.565
0.368005
4.19786
0.398116
5.12095
0.560991
6.05804
0.749439
7.35114
0.780805
6.91958
0.706784
5.56153
0.237174
3.37103
-0.326331
1.17598
-0.649107
0.0156529
-0.624472
-0.649255
-0.336901
-0.924841
-0.635924
0.0353533
0.0229761
0.214648
0.39587
0.339729
1.09425
0.416655
1.66134
0.456474
2.12843
0.479615
2.56494
0.490567
3.02822
0.50991
3.54566
0.545467
4.1623
0.622659
5.04376
0.925694
5.755
1.39974
6.87709
1.76922
6.5501
2.04382
5.28693
1.75827
3.65658
1.04724
1.88702
0.434711
0.628179
0.0463765
-0.26092
-0.0981761
-0.780288
-0.734101
0.0311712
-0.00819513
0.234055
0.192987
0.432847
0.895457
0.541256
1.55293
0.593731
2.07595
0.628684
2.52999
0.651715
3.00519
0.682976
3.5144
0.746574
4.09871
0.884601
4.90573
1.29465
5.34496
2.03576
6.13598
2.41961
6.16625
2.6232
5.08334
2.46407
3.81571
1.92632
2.42476
1.37494
1.17956
0.821191
0.292832
0.305294
-0.264391
-0.428807
0.0276315
-0.0358267
0.171283
0.0493353
0.483071
0.583669
0.669521
1.36648
0.763034
1.98244
0.813633
2.47939
0.852663
2.96616
0.884389
3.48267
0.960349
4.02275
1.10798
4.7581
1.48257
4.97037
2.26909
5.34946
2.63717
5.79817
2.82151
4.899
2.72757
3.90966
2.26042
2.89191
1.62121
1.81877
0.976915
0.937126
0.419958
0.292565
-0.00884844
0.00806927
-0.0438959
0.0890757
-0.0316712
0.40949
0.263254
0.67819
1.09778
0.804213
1.85642
0.841134
2.44247
0.851649
2.95565
0.842082
3.49224
0.84166
4.02317
0.885866
4.71389
1.01272
4.84351
1.40994
4.95224
1.60969
5.59843
1.63189
4.87679
1.55552
3.98604
1.34599
3.10143
0.995549
2.16922
0.629546
1.30313
0.258671
0.66344
0.249823
-0.000134734
-0.0437612
0.0388083
-0.0706142
0.228621
0.0734416
0.50808
0.818325
0.665897
1.6986
0.718819
2.38954
0.732319
2.94215
0.726629
3.49793
0.710508
4.03929
0.727728
4.69667
0.782108
4.78913
1.03041
4.70393
1.25104
5.3778
1.25819
4.86964
1.19597
4.04826
1.04782
3.24958
0.785534
2.43151
0.489196
1.59947
0.201061
0.951575
0.450884
-0.000275568
-0.0434856
0.0226741
-0.0935639
0.106767
-0.0106515
0.356084
0.569008
0.51091
1.54377
0.580353
2.3201
0.600603
2.9219
0.602242
3.49629
0.581321
4.06021
0.572579
4.70541
0.595664
4.76605
0.745514
4.55408
0.925557
5.19775
0.92435
4.87084
0.860685
4.11193
0.745292
3.36497
0.564771
2.61203
0.342615
1.82162
0.132249
1.16194
0.583132
-0.00355696
-0.0399287
0.0130489
-0.11017
0.0609541
-0.0585567
0.255396
0.374566
0.390077
1.40909
0.449674
2.2605
0.465197
2.90638
0.470402
3.49109
0.459094
4.07152
0.44721
4.7173
0.447032
4.76623
0.535052
4.46606
0.662757
5.07005
0.658685
4.87492
0.593831
4.17678
0.500839
3.45796
0.37327
2.7396
0.217923
1.97697
0.0744268
1.30544
0.657559
0.0225571
-0.0624858
0.0700488
-0.157661
0.111102
-0.09961
0.194463
0.291205
0.287087