/*--------------------------------*- C++ -*----------------------------------*\
| =========                 |                                                 |
| \\      /  F ield         | OpenFOAM: The Open Source CFD Toolbox           |
|  \\    /   O peration     | Version:  v2012                                 |
|   \\  /    A nd           | Website:  www.openfoam.com                      |
|    \\/     M anipulation  |                                                 |
\*---------------------------------------------------------------------------*/
FoamFile
{
    version     2.0;
    format      ascii;
    class       volVectorField;
    location    "53";
    object      U;
}
// * * * * * * * * * * * * * * * * * * * * * * * * * * * * * * * * * * * * * //

dimensions      [0 1 -1 0 0 0 0];


internalField   nonuniform List<vector> 
2200
(
(0.878839 -0.0304138 0)
(1.00578 -0.0512838 0)
(1.00328 -0.0354008 0)
(1.00026 -0.0244564 0)
(0.999836 -0.0166939 0)
(1 -0.0107589 0)
(1.00003 -0.00686996 0)
(1.00003 -0.00421484 0)
(1.00001 -0.00223087 0)
(1.00018 -0.000713233 0)
(0.999999 0.001054 0)
(0.999857 0.00255843 0)
(1.00003 0.00449166 0)
(1.00006 0.00706066 0)
(1.00009 0.0108388 0)
(1.00007 0.0166836 0)
(1.00039 0.0244029 0)
(1.00349 0.0349157 0)
(1.00597 0.0513758 0)
(0.879032 0.0303094 0)
(0.711998 -0.032764 0)
(0.996632 -0.0630156 0)
(1.0333 -0.0561686 0)
(1.02485 -0.0464032 0)
(1.01588 -0.0360861 0)
(1.00968 -0.0263677 0)
(1.00591 -0.0181349 0)
(1.00374 -0.011442 0)
(1.00254 -0.00606108 0)
(1.00208 -0.00153931 0)
(1.0022 0.00262178 0)
(1.00266 0.0070874 0)
(1.0036 0.0123944 0)
(1.00568 0.0190006 0)
(1.00943 0.0272425 0)
(1.01545 0.0369283 0)
(1.02453 0.0473883 0)
(1.0331 0.0578758 0)
(0.996682 0.0631418 0)
(0.711764 0.0330195 0)
(0.535544 -0.0238923 0)
(0.969895 -0.0569435 0)
(1.05644 -0.0547125 0)
(1.05232 -0.0488051 0)
(1.03626 -0.0404781 0)
(1.0244 -0.0322864 0)
(1.01591 -0.0240238 0)
(1.01043 -0.0161456 0)
(1.00722 -0.00885846 0)
(1.00565 -0.00223188 0)
(1.00542 0.00407498 0)
(1.00687 0.0105748 0)
(1.01021 0.017625 0)
(1.01565 0.0252783 0)
(1.02408 0.0333351 0)
(1.03618 0.0413375 0)
(1.05226 0.0493718 0)
(1.05633 0.0533538 0)
(0.969218 0.0576191 0)
(0.534435 0.0239297 0)
(0.392239 -0.0136625 0)
(0.911717 -0.0464072 0)
(1.05746 -0.0469983 0)
(1.06938 -0.0442909 0)
(1.05484 -0.0381916 0)
(1.03937 -0.0315199 0)
(1.02753 -0.0247224 0)
(1.01904 -0.0175008 0)
(1.01366 -0.0100502 0)
(1.01105 -0.00247604 0)
(1.01101 0.00504479 0)
(1.01341 0.0125159 0)
(1.01837 0.0197142 0)
(1.02677 0.0266461 0)
(1.03851 0.0330348 0)
(1.0539 0.0395065 0)
(1.06813 0.0455927 0)
(1.05555 0.0482832 0)
(0.909928 0.04698 0)
(0.389994 0.0137754 0)
(0.307634 -0.0045072 0)
(0.846742 -0.0323748 0)
(1.04954 -0.0399143 0)
(1.07961 -0.0381867 0)
(1.06823 -0.033524 0)
(1.05165 -0.0279347 0)
(1.03828 -0.022532 0)
(1.02806 -0.0165068 0)
(1.02102 -0.0095699 0)
(1.01716 -0.00196061 0)
(1.01688 0.00585563 0)
(1.02036 0.0130789 0)
(1.02735 0.0196015 0)
(1.03729 0.0252588 0)
(1.05038 0.0302589 0)
(1.06684 0.0355877 0)
(1.07789 0.039917 0)
(1.04746 0.041641 0)
(0.843158 0.0329206 0)
(0.303909 0.00472294 0)
(0.264152 9.56907e-05 0)
(0.78876 -0.0200983 0)
(1.03307 -0.031511 0)
(1.08338 -0.0321502 0)
(1.07725 -0.0288968 0)
(1.06085 -0.0239958 0)
(1.04725 -0.0195262 0)
(1.03637 -0.0143847 0)
(1.02853 -0.00839338 0)
(1.02404 -0.00143016 0)
(1.02363 0.00594177 0)
(1.02745 0.0128087 0)
(1.03461 0.0184581 0)
(1.04522 0.0230644 0)
(1.05864 0.0269892 0)
(1.07488 0.0314106 0)
(1.08035 0.034179 0)
(1.02921 0.0332525 0)
(0.782829 0.0207158 0)
(0.258971 0.000110518 0)
(0.240226 0.00106617 0)
(0.73831 -0.0123118 0)
(1.01374 -0.0250091 0)
(1.08411 -0.0267948 0)
(1.08299 -0.0245003 0)
(1.06773 -0.0204231 0)
(1.05419 -0.0164397 0)
(1.04334 -0.0119774 0)
(1.03517 -0.0065316 0)
(1.03031 -7.80913e-05 0)
(1.02995 0.00664029 0)
(1.03409 0.0124991 0)
(1.04165 0.0172609 0)
(1.05182 0.0211772 0)
(1.06497 0.0245618 0)
(1.07971 0.0279832 0)
(1.0802 0.0295334 0)
(1.00797 0.0271563 0)
(0.729353 0.0131081 0)
(0.233419 -0.000846032 0)
(0.225787 0.00095527 0)
(0.695093 -0.0080624 0)
(0.992721 -0.0208228 0)
(1.08197 -0.0232205 0)
(1.08669 -0.0213799 0)
(1.07327 -0.0177769 0)
(1.05985 -0.0140152 0)
(1.04929 -0.00970553 0)
(1.04137 -0.00482532 0)
(1.03639 0.00076356 0)
(1.03546 0.00661669 0)
(1.03897 0.0120109 0)
(1.04593 0.0162851 0)
(1.05593 0.0197233 0)
(1.06915 0.0227885 0)
(1.08195 0.025641 0)
(1.07561 0.0266291 0)
(0.983452 0.0233257 0)
(0.682316 0.0090839 0)
(0.217031 -0.000719964 0)
(0.216204 0.000612044 0)
(0.659749 -0.00571943 0)
(0.972396 -0.0177042 0)
(1.07947 -0.020342 0)
(1.09019 -0.0187834 0)
(1.07812 -0.0156712 0)
(1.06468 -0.011977 0)
(1.05423 -0.00786726 0)
(1.04634 -0.00306873 0)
(1.04134 0.00232432 0)
(1.04077 0.00781657 0)
(1.04433 0.012378 0)
(1.05087 0.0161477 0)
(1.06027 0.019393 0)
(1.07294 0.0220719 0)
(1.08383 0.0242306 0)
(1.0716 0.0248005 0)
(0.96008 0.020858 0)
(0.642642 0.0070085 0)
(0.205081 -0.000348402 0)
(0.20888 0.0002917 0)
(0.630896 -0.00424933 0)
(0.953163 -0.0151173 0)
(1.07608 -0.0180821 0)
(1.0932 -0.016773 0)
(1.08283 -0.0138476 0)
(1.06936 -0.0103082 0)
(1.05889 -0.00620351 0)
(1.05119 -0.00155325 0)
(1.04625 0.00339539 0)
(1.04462 0.00826733 0)
(1.04721 0.0128034 0)
(1.05339 0.0164562 0)
(1.06276 0.019348 0)
(1.07565 0.0218773 0)
(1.08465 0.0236554 0)
(1.06413 0.0236108 0)
(0.934973 0.0189305 0)
(0.607749 0.005853 0)
(0.194711 2.63991e-05 0)
(0.203031 7.9978e-05 0)
(0.607569 -0.00317541 0)
(0.935246 -0.0126249 0)
(1.07303 -0.0157352 0)
(1.09649 -0.014671 0)
(1.08741 -0.0120108 0)
(1.07393 -0.00848065 0)
(1.06321 -0.00451853 0)
(1.05511 6.65821e-05 0)
(1.04976 0.00515056 0)
(1.04861 0.0102318 0)
(1.05134 0.0141739 0)
(1.05723 0.0173619 0)
(1.06631 0.0199918 0)
(1.07843 0.0220286 0)
(1.08519 0.023191 0)
(1.05804 0.0226456 0)
(0.912038 0.0173254 0)
(0.578133 0.00516473 0)
(0.185343 0.000303523 0)
(0.198356 -4.02297e-06 0)
(0.589138 -0.00234399 0)
(0.919487 -0.0103684 0)
(1.06964 -0.0136168 0)
(1.09954 -0.0126195 0)
(1.0921 -0.00995457 0)
(1.0785 -0.00649358 0)
(1.06758 -0.00253887 0)
(1.05935 0.00200628 0)
(1.05388 0.00678742 0)
(1.05143 0.0112741 0)
(1.0532 0.0154022 0)
(1.05884 0.0184452 0)
(1.06797 0.0205811 0)
(1.08035 0.0223446 0)
(1.08496 0.0231712 0)
(1.04866 0.0220087 0)
(0.887333 0.0160222 0)
(0.550724 0.00474473 0)
(0.176072 0.000467088 0)
(0.194718 2.24914e-05 0)
(0.574343 -0.00159236 0)
(0.90498 -0.00819994 0)
(1.06702 -0.0111724 0)
(1.10312 -0.0101321 0)
(1.097 -0.00750694 0)
(1.08343 -0.00400969 0)
(1.0721 -0.000198562 0)
(1.06325 0.00423524 0)
(1.05694 0.00914964 0)
(1.0548 0.0139068 0)
(1.05684 0.0172901 0)
(1.06221 0.0196581 0)
(1.07095 0.0215857 0)
(1.08216 0.0228814 0)
(1.08427 0.023408 0)
(1.04026 0.0217111 0)
(0.86448 0.0151285 0)
(0.526517 0.00456212 0)
(0.16729 0.000562832 0)
(0.192502 5.19558e-05 0)
(0.563586 -0.000825212 0)
(0.893384 -0.00605795 0)
(1.06435 -0.00899035 0)
(1.1066 -0.00780435 0)
(1.10212 -0.00491319 0)
(1.08836 -0.00127445 0)
(1.07671 0.00259912 0)
(1.0675 0.00697282 0)
(1.06096 0.0115648 0)
(1.05742 0.0158463 0)
(1.05803 0.0191413 0)
(1.06307 0.0214297 0)
(1.07202 0.0226939 0)
(1.08321 0.0237664 0)
(1.08269 0.0238324 0)
(1.02865 0.0215738 0)
(0.839485 0.0144348 0)
(0.502709 0.00442479 0)
(0.158326 0.000591587 0)
(0.191549 0.000100517 0)
(0.555997 -0.000236945 0)
(0.882905 -0.00401026 0)
(1.06273 -0.00618301 0)
(1.11057 -0.00479206 0)
(1.10735 -0.0018871 0)
(1.09358 0.00189297 0)
(1.08133 0.00594189 0)
(1.07129 0.0104623 0)
(1.06349 0.0152259 0)
(1.05977 0.0193649 0)
(1.06112 0.0222655 0)
(1.06602 0.0236374 0)
(1.07446 0.0247369 0)
(1.0835 0.025318 0)
(1.08004 0.0249131 0)
(1.01742 0.0220382 0)
(0.815857 0.0141533 0)
(0.480833 0.00445651 0)
(0.149746 0.000620361 0)
(0.192051 8.64221e-05 0)
(0.551503 0.000748018 0)
(0.876468 -0.0016537 0)
(1.06164 -0.00366366 0)
(1.11468 -0.00196323 0)
(1.11302 0.00133132 0)
(1.09914 0.00539516 0)
(1.0866 0.00961678 0)
(1.07627 0.0141924 0)
(1.0683 0.018748 0)
(1.06328 0.0225232 0)
(1.0621 0.0248271 0)
(1.06578 0.0264533 0)
(1.07425 0.0269372 0)
(1.08338 0.0270785 0)
(1.07627 0.0262401 0)
(1.00263 0.0225867 0)
(0.789616 0.014118 0)
(0.458117 0.00455647 0)
(0.140671 0.000642684 0)
(0.193974 0.000190644 0)
(0.551649 0.00148878 0)
(0.871416 0.00035778 0)
(1.06233 -0.000230074 0)
(1.11969 0.00183407 0)
(1.11909 0.00519882 0)
(1.10515 0.00942162 0)
(1.09194 0.0141408 0)
(1.08053 0.0191799 0)
(1.07079 0.0240543 0)
(1.06492 0.0275913 0)
(1.06454 0.0297831 0)
(1.0685 0.0303971 0)
(1.07598 0.0306365 0)
(1.08191 0.0299264 0)
(1.07099 0.0282527 0)
(0.988233 0.0237211 0)
(0.764533 0.0144964 0)
(0.436432 0.00478233 0)
(0.131702 0.000673696 0)
(0.197958 0.00065225 0)
(0.554152 0.00227499 0)
(0.871492 0.00326871 0)
(1.06434 0.00302039 0)
(1.12514 0.00569713 0)
(1.12571 0.00961999 0)
(1.11157 0.0144529 0)
(1.09798 0.0194053 0)
(1.08603 0.0245297 0)
(1.07568 0.0291678 0)
(1.06836 0.0325517 0)
(1.06502 0.0339441 0)
(1.06632 0.0344067 0)
(1.07363 0.0337867 0)
(1.08003 0.0330409 0)
(1.06415 0.0307861 0)
(0.969493 0.0252402 0)
(0.735623 0.0151998 0)
(0.412501 0.0051196 0)
(0.121761 0.000716296 0)
(0.20427 0.000866717 0)
(0.560676 0.00338037 0)
(0.875044 0.00572265 0)
(1.06888 0.00730986 0)
(1.13178 0.0106939 0)
(1.13299 0.0150931 0)
(1.11828 0.0202924 0)
(1.1035 0.025958 0)
(1.08989 0.0316902 0)
(1.07743 0.0368736 0)
(1.06853 0.0398214 0)
(1.06574 0.0406588 0)
(1.06845 0.0404057 0)
(1.07441 0.0397374 0)
(1.0764 0.0373816 0)
(1.05555 0.0340647 0)
(0.950877 0.0273735 0)
(0.707298 0.0162265 0)
(0.388757 0.00555459 0)
(0.111614 0.000757032 0)
(0.212562 0.00104241 0)
(0.571864 0.00470408 0)
(0.883109 0.00880716 0)
(1.07601 0.0118388 0)
(1.13973 0.0163108 0)
(1.14163 0.0214881 0)
(1.12627 0.0276868 0)
(1.11071 0.0337048 0)
(1.09623 0.0395717 0)
(1.08247 0.0444077 0)
(1.07159 0.0472903 0)
(1.06541 0.0477161 0)
(1.0643 0.0465503 0)
(1.06935 0.0439712 0)
(1.07235 0.0423747 0)
(1.04465 0.0380673 0)
(0.926386 0.0298976 0)
(0.673641 0.0176241 0)
(0.361391 0.00607284 0)
(0.100045 0.000805169 0)
(0.224689 0.00136581 0)
(0.58966 0.00663259 0)
(0.897382 0.0131086 0)
(1.08655 0.0180027 0)
(1.14959 0.0233512 0)
(1.15149 0.0294227 0)
(1.13483 0.0363628 0)
(1.11711 0.0433011 0)
(1.09973 0.0499872 0)
(1.08302 0.0555216 0)
(1.06991 0.0580553 0)
(1.06412 0.0571204 0)
(1.06453 0.0548979 0)
(1.06906 0.0522853 0)
(1.06558 0.0485194 0)
(1.03143 0.0426805 0)
(0.901645 0.0331339 0)
(0.639914 0.0192862 0)
(0.333507 0.0066348 0)
(0.088106 0.000846153 0)
(0.240271 0.00192208 0)
(0.613111 0.0084548 0)
(0.918295 0.0177935 0)
(1.10141 0.0249576 0)
(1.16146 0.0319837 0)
(1.16296 0.0390624 0)
(1.14456 0.0474009 0)
(1.1252 0.0551657 0)
(1.10629 0.0621645 0)
(1.08768 0.067044 0)
(1.07176 0.0682109 0)
(1.06224 0.0671002 0)
(1.05861 0.0637313 0)
(1.06052 0.0596313 0)
(1.05868 0.0554 0)
(1.01497 0.0484857 0)
(0.869338 0.0366692 0)
(0.598921 0.021168 0)
(0.30085 0.00721366 0)
(0.0745112 0.000863198 0)
(0.261907 0.00277139 0)
(0.645515 0.0122293 0)
(0.946631 0.0245942 0)
(1.12064 0.0346166 0)
(1.17605 0.0429529 0)
(1.17627 0.0521941 0)
(1.15549 0.0616454 0)
(1.13303 0.0704259 0)
(1.11011 0.0779337 0)
(1.08711 0.0825318 0)
(1.0686 0.0832404 0)
(1.05857 0.0795975 0)
(1.05644 0.0753546 0)
(1.05825 0.070344 0)
(1.0474 0.0639267 0)
(0.99478 0.054814 0)
(0.835838 0.0410427 0)
(0.557226 0.0233155 0)
(0.2674 0.00779948 0)
(0.0606991 0.00084369 0)
(0.293199 0.00369435 0)
(0.691168 0.0155065 0)
(0.985603 0.0330932 0)
(1.14657 0.046658 0)
(1.19419 0.0576619 0)
(1.19201 0.0685677 0)
(1.16775 0.0794619 0)
(1.14235 0.0887589 0)
(1.11691 0.0959051 0)
(1.09185 0.0994119 0)
(1.06977 0.0977185 0)
(1.05555 0.0936012 0)
(1.04814 0.0873256 0)
(1.04587 0.0802915 0)
(1.03568 0.0731801 0)
(0.970487 0.0621977 0)
(0.792428 0.0453362 0)
(0.505837 0.0254496 0)
(0.227861 0.00816446 0)
(0.0452246 0.000743923 0)
(0.329519 0.00707381 0)
(0.74923 0.0246458 0)
(1.03477 0.0464727 0)
(1.17826 0.064193 0)
(1.21606 0.0768512 0)
(1.20954 0.0910305 0)
(1.18081 0.102866 0)
(1.15115 0.112426 0)
(1.12077 0.119131 0)
(1.08975 0.121224 0)
(1.06404 0.117812 0)
(1.04902 0.110416 0)
(1.04352 0.102436 0)
(1.0413 0.0944929 0)
(1.01867 0.0844465 0)
(0.940172 0.0702203 0)
(0.746981 0.0509252 0)
(0.454173 0.0278803 0)
(0.188515 0.0083764 0)
(0.0308379 0.000614527 0)
(0.409314 0.0106255 0)
(0.836429 0.0357257 0)
(1.09979 0.0671253 0)
(1.21759 0.0895812 0)
(1.24195 0.105329 6.41405e-34)
(1.2283 0.121207 -2.88671e-34)
(1.19299 0.133062 0)
(1.15807 0.141287 0)
(1.12287 0.145487 0)
(1.08867 0.144262 0)
(1.06044 0.138052 0)
(1.04208 0.12883 0)
(1.0312 0.118824 0)
(1.02308 0.107566 0)
(0.999123 0.0962521 0)
(0.90429 0.0796491 0)
(0.687399 0.0553734 0)
(0.386968 0.0291483 0)
(0.139463 0.00804469 0)
(0.0143522 0.000733024 0)
(0.480315 0.0259074 4.76645e-20)
(0.93864 0.0594635 -3.60734e-20)
(1.17084 0.101747 0)
(1.25841 0.128314 2.78055e-20)
(1.26944 0.143542 -2.25487e-20)
(1.24628 0.161503 3.04574e-34)
(1.20401 0.171438 0)
(1.16397 0.177534 1.61834e-20)
(1.1238 0.179595 -5.31223e-20)
(1.08438 0.176428 1.08366e-20)
(1.05082 0.16622 0)
(1.03001 0.152833 -2.744e-20)
(1.02059 0.139633 -3.28979e-20)
(1.01238 0.128765 5.75521e-20)
(0.968295 0.113064 -4.54557e-20)
(0.84731 0.0897895 0)
(0.607791 0.0605652 -1.63895e-20)
(0.308734 0.0292929 0)
(0.0887749 0.00773111 -9.03718e-20)
(-0.00272431 0.000584976 1.06504e-19)
(0.516652 0.0534497 -6.23246e-21)
(1.00283 0.102604 1.08525e-19)
(1.22039 0.151643 -6.24268e-21)
(1.2917 0.175862 -6.90547e-20)
(1.29372 0.193148 -4.77983e-20)
(1.26149 0.209269 7.77496e-20)
(1.21278 0.216402 0)
(1.16694 0.219868 0)
(1.1207 0.218795 8.45322e-20)
(1.07477 0.210648 0)
(1.03721 0.196938 9.91462e-20)
(1.01369 0.182845 2.94428e-20)
(0.998568 0.169666 4.36475e-22)
(0.978209 0.152455 -6.27303e-20)
(0.929404 0.1342 0)
(0.793434 0.10738 0)
(0.540535 0.0686124 -2.67633e-19)
(0.25168 0.0306142 6.72636e-19)
(0.0600083 0.00709708 -3.97595e-19)
(-0.0129755 -0.000797725 -4.68747e-19)
(0.524592 0.0760146 -6.24717e-20)
(1.04091 0.159375 2.37946e-20)
(1.25744 0.212234 1.28878e-20)
(1.31801 0.235136 1.20522e-19)
(1.31269 0.2507 1.44137e-20)
(1.27308 0.262377 -2.02783e-19)
(1.21878 0.265584 6.90737e-20)
(1.16772 0.265587 0)
(1.11646 0.26118 -1.78803e-19)
(1.06711 0.250884 1.58575e-19)
(1.02676 0.236593 -2.67597e-19)
(0.997874 0.21818 1.25421e-19)
(0.977955 0.199527 -8.12827e-20)
(0.959699 0.183903 1.83149e-19)
(0.898375 0.161744 0)
(0.752538 0.125165 -6.69486e-20)
(0.503045 0.0788743 0)
(0.238199 0.0339421 3.69527e-19)
(0.0568081 0.00832902 -8.73554e-19)
(-0.0144384 -0.00223837 5.47554e-19)
(0.520114 0.107776 1.74792e-19)
(1.0608 0.215713 -7.65094e-20)
(1.27899 0.276867 -1.62283e-20)
(1.33515 0.299256 0)
(1.32487 0.312822 -8.91329e-20)
(1.27995 0.31938 1.09946e-19)
(1.22094 0.317718 -7.39509e-20)
(1.16498 0.313457 0)
(1.10874 0.304911 1.27064e-19)
(1.0538 0.290315 -1.11454e-19)
(1.00475 0.268873 2.32106e-19)
(0.97254 0.247924 0)
(0.954363 0.230307 -1.72865e-19)
(0.92481 0.210218 9.73896e-20)
(0.866582 0.185064 2.45584e-19)
(0.725628 0.147767 -2.16097e-19)
(0.487396 0.0941003 3.42764e-19)
(0.237495 0.0433473 -7.59968e-19)
(0.0633971 0.0110783 4.79713e-19)
(-0.0113896 -0.0024695 -5.99913e-19)
(0.508932 0.132044 -6.09493e-20)
(1.06907 0.269832 4.36232e-20)
(1.29014 0.342854 -5.39155e-20)
(1.34418 0.364963 1.07224e-19)
(1.33038 0.376187 -1.01158e-19)
(1.28171 0.377644 3.48535e-20)
(1.21897 0.37141 3.60442e-21)
(1.15879 0.363149 -1.44323e-19)
(1.09762 0.350451 -1.33409e-19)
(1.03765 0.332004 -2.39643e-19)
(0.98866 0.308666 -4.99081e-19)
(0.954972 0.286033 -1.53793e-19)
(0.928176 0.264526 2.27883e-21)
(0.906915 0.242993 -3.33862e-19)
(0.841909 0.217023 -5.77603e-21)
(0.7015 0.169698 3.14728e-19)
(0.477092 0.109758 -9.48639e-20)
(0.242761 0.0540774 -5.4936e-20)
(0.074429 0.015693 0)
(-0.00571545 -0.00175989 1.27693e-18)
(0.492455 0.1528 0)
(1.06395 0.319435 -4.00506e-21)
(1.29242 0.40584 0)
(1.34641 0.428699 -1.2819e-20)
(1.33007 0.438872 9.79436e-20)
(1.27879 0.436058 -8.11362e-20)
(1.2132 0.425466 8.08002e-20)
(1.14984 0.412845 2.36921e-19)
(1.0861 0.395954 -7.42015e-20)
(1.02401 0.37278 1.18532e-19)
(0.969432 0.344299 2.68278e-19)
(0.928946 0.318402 3.35267e-19)
(0.904771 0.295403 -2.01954e-19)
(0.870574 0.272359 3.61522e-19)
(0.812727 0.241218 -2.86533e-19)
(0.682527 0.196121 0)
(0.473411 0.130093 -7.20402e-19)
(0.254419 0.0684493 9.69575e-19)
(0.0894574 0.0234342 7.23784e-20)
(0.00195909 0.00022502 -1.35103e-18)
(0.47795 0.172947 -5.0882e-21)
(1.05594 0.36748 -1.65573e-20)
(1.28956 0.466742 7.50469e-20)
(1.34367 0.490781 -8.97534e-20)
(1.32522 0.499784 8.11558e-20)
(1.27211 0.49287 -7.871e-20)
(1.20458 0.478391 1.6028e-19)
(1.13892 0.461958 -7.12216e-20)
(1.07181 0.440986 -2.99636e-19)
(1.00398 0.413666 -1.97402e-22)
(0.945525 0.382436 -2.91735e-19)
(0.90658 0.353523 -3.60706e-19)
(0.87748 0.32733 2.23021e-19)
(0.853071 0.304693 -1.30131e-19)
(0.790335 0.274213 3.11586e-19)
(0.663739 0.218974 0)
(0.466797 0.15048 -4.47503e-19)
(0.261632 0.0827104 6.60936e-19)
(0.101346 0.0318412 1.25088e-18)
(0.00875572 0.00266494 -1.47126e-18)
(0.464061 0.190736 -5.53223e-20)
(1.04398 0.412262 2.17145e-20)
(1.2827 0.524314 -4.6078e-20)
(1.33711 0.549677 9.29832e-20)
(1.31706 0.558232 1.19834e-20)
(1.2626 0.547989 -1.54526e-19)
(1.19345 0.53007 -9.28771e-20)
(1.12564 0.509898 -9.09263e-20)
(1.05611 0.485412 -1.69115e-19)
(0.987048 0.454363 2.72085e-19)
(0.927615 0.41943 2.94971e-19)
(0.883653 0.38585 5.72386e-19)
(0.853868 0.360292 0)
(0.818756 0.333255 6.46042e-21)
(0.762825 0.29783 -8.5622e-19)
(0.645463 0.24622 2.00266e-19)
(0.462292 0.171125 9.68977e-19)
(0.268452 0.0984656 -2.85941e-19)
(0.111774 0.0410334 5.94343e-19)
(0.0147555 0.00549036 -4.95529e-20)
(0.454204 0.208878 5.86133e-21)
(1.03243 0.454982 4.32435e-20)
(1.27344 0.579268 -2.00492e-20)
(1.32789 0.606311 1.03175e-19)
(1.30627 0.613959 -1.63402e-19)
(1.2507 0.600505 1.53603e-19)
(1.18036 0.579584 9.61929e-20)
(1.11102 0.556375 2.71864e-19)
(1.03918 0.528224 3.39609e-19)
(0.966656 0.493164 -3.13935e-19)
(0.902416 0.454159 0)
(0.857172 0.418963 -2.16498e-19)
(0.827303 0.390543 2.48565e-19)
(0.801738 0.363389 3.13811e-19)
(0.74188 0.330136 -1.81488e-19)
(0.626627 0.26726 -4.42617e-19)
(0.453789 0.190912 -1.32053e-19)
(0.271117 0.113199 -1.77833e-21)
(0.118469 0.0495217 0)
(0.0190187 0.00804616 0)
(0.446155 0.225096 -6.9228e-20)
(1.02076 0.495431 0)
(1.26255 0.631023 -5.62227e-21)
(1.31652 0.659809 -1.06356e-20)
(1.29377 0.666978 1.85443e-19)
(1.23733 0.650821 -4.71348e-20)
(1.16592 0.627226 9.77747e-20)
(1.09518 0.600994 -1.84086e-19)
(1.02176 0.57001 2.57589e-19)
(0.94764 0.532183 -1.03007e-19)
(0.881769 0.489785 1.68985e-19)
(0.835642 0.452211 6.86388e-19)
(0.804303 0.421662 1.43429e-20)
(0.767237 0.390189 -3.27155e-19)
(0.714384 0.349523 6.0635e-19)
(0.606925 0.292555 4.02542e-21)
(0.444472 0.209315 1.41278e-19)
(0.269095 0.126653 -6.73746e-19)
(0.12049 0.0564271 6.94635e-19)
(0.0214745 0.0100277 -8.18413e-19)
(0.43948 0.24316 2.87577e-23)
(1.00902 0.533401 0)
(1.25041 0.679771 0)
(1.30388 0.710773 -3.88829e-21)
(1.27996 0.717068 -5.53066e-20)
(1.22275 0.698331 7.22198e-20)
(1.15068 0.672356 -1.82506e-19)
(1.07909 0.643731 0)
(1.00385 0.609882 -3.79758e-19)
(0.926634 0.568558 4.54631e-19)
(0.858561 0.522502 4.81352e-19)
(0.809888 0.482448 -2.51912e-19)
(0.776341 0.448811 -3.0493e-19)
(0.750513 0.416956 7.1498e-19)
(0.692063 0.378595 -2.15441e-19)
(0.586315 0.308813 -2.57188e-19)
(0.430442 0.225858 -1.53896e-19)
(0.26379 0.136994 -7.26976e-19)
(0.118323 0.0617725 1.06334e-19)
(0.0220891 0.0110522 8.83881e-19)
(0.435397 0.261312 -3.49367e-20)
(0.998727 0.570182 -4.54687e-20)
(1.23772 0.725822 2.36176e-20)
(1.29019 0.758582 -1.95238e-22)
(1.2655 0.764504 -5.57367e-20)
(1.2078 0.743602 1.17623e-19)
(1.13511 0.715491 0)
(1.0624 0.684457 1.111e-19)
(0.985636 0.648473 -8.76031e-20)
(0.90694 0.605109 7.58049e-19)
(0.836816 0.556691 -1.09609e-19)
(0.786694 0.513362 1.24844e-19)
(0.753387 0.477003 0)
(0.71548 0.440035 -3.87123e-19)
(0.663953 0.392373 4.68984e-19)
(0.56475 0.329636 0)
(0.417887 0.239127 -3.31558e-19)
(0.255693 0.14632 9.75111e-19)
(0.114477 0.0646411 1.15175e-19)
(0.0211026 0.0118191 -1.08752e-18)
(0.432882 0.278267 -8.92809e-20)
(0.988431 0.604291 1.14616e-19)
(1.22463 0.768911 0)
(1.27624 0.803804 1.09231e-20)
(1.25065 0.808956 0)
(1.19237 0.786047 -1.51364e-19)
(1.11927 0.756109 0)
(1.04593 0.723257 0)
(0.967878 0.685117 -1.15652e-19)
(0.88699 0.639024 -7.20506e-19)
(0.814548 0.587926 -8.89308e-19)
(0.761696 0.540988 1.4597e-19)
(0.725225 0.500237 5.26634e-19)
(0.697722 0.461889 4.26297e-19)
(0.641852 0.417139 -1.50452e-18)
(0.543618 0.339704 -6.03293e-19)
(0.400754 0.250098 3.53378e-19)
(0.245123 0.151702 0)
(0.108558 0.0660657 9.89141e-19)
(0.019421 0.0118037 -1.17146e-18)
(0.431364 0.293965 1.07679e-19)
(0.979461 0.637465 -1.3399e-19)
(1.21173 0.809588 0)
(1.26196 0.84604 -1.10824e-20)
(1.23572 0.850985 1.43546e-21)
(1.17711 0.826395 0)
(1.10364 0.794768 5.6047e-20)
(1.02949 0.760013 7.67958e-20)
(0.950223 0.720326 -2.1772e-19)
(0.867456 0.672945 9.55374e-20)
(0.791304 0.619529 0)
(0.737612 0.568648 6.04453e-19)
(0.701687 0.525353 5.28352e-21)
(0.662242 0.481123 2.29943e-19)
(0.613169 0.424029 2.73115e-19)
(0.521231 0.355627 0)
(0.385969 0.257174 -5.76835e-19)
(0.233596 0.155045 1.13121e-18)
(0.102027 0.0661227 -1.19668e-18)
(0.0174326 0.0113513 2.52201e-18)
(0.430123 0.309016 0)
(0.970238 0.668112 0)
(1.19895 0.847428 -6.50035e-20)
(1.24797 0.885882 0)
(1.22093 0.890171 0)
(1.16184 0.864007 -1.25746e-19)
(1.08813 0.830988 5.73607e-20)
(1.0136 0.794901 1.76414e-20)
(0.933139 0.753713 -4.98227e-20)
(0.848052 0.704426 0)
(0.770101 0.649095 -1.35332e-19)
(0.71228 0.595794 -4.93035e-19)
(0.671064 0.546061 -5.93895e-19)
(0.643324 0.497231 -2.38822e-19)
(0.590157 0.444163 2.95744e-19)
(0.499427 0.358238 -6.97042e-19)
(0.367223 0.261769 1.24118e-18)
(0.222151 0.155351 2.05151e-21)
(0.0956158 0.065239 -1.14538e-18)
(0.0157071 0.0107914 -1.70028e-19)
(0.429138 0.323597 0)
(0.962386 0.698366 -1.09866e-19)
(1.18668 0.883275 8.00624e-20)
(1.23399 0.922995 0)
(1.20634 0.927203 0)
(1.14705 0.899758 2.52249e-19)
(1.07319 0.86542 0)
(0.998014 0.827857 0)
(0.916352 0.785577 -4.77222e-19)
(0.829716 0.735641 1.31816e-19)
(0.747859 0.678338 -1.19999e-18)
(0.687525 0.620505 0)
(0.647506 0.568851 -6.44634e-19)
(0.605634 0.513596 1.05944e-20)
(0.559477 0.443281 -9.5051e-19)
(0.476306 0.367246 3.75005e-19)
(0.353108 0.260878 1.44944e-21)
(0.21201 0.152737 -1.30411e-18)
(0.0906211 0.0629476 6.15631e-19)
(0.0133139 0.00921133 1.81877e-19)
(0.428137 0.337862 0)
(0.954247 0.72611 -1.5343e-19)
(1.17463 0.916574 8.45923e-20)
(1.22057 0.95801 1.07859e-19)
(1.19223 0.9616 -1.26605e-20)
(1.13259 0.932909 2.53547e-20)
(1.05863 0.897555 -3.44779e-20)
(0.983165 0.859066 4.58387e-19)
(0.900445 0.815757 5.10492e-19)
(0.811483 0.764679 1.00444e-18)
(0.727417 0.706177 9.97044e-19)
(0.662146 0.64747 1.7522e-19)
(0.614315 0.588107 9.27458e-19)
(0.583998 0.524907 5.72933e-19)
(0.533704 0.458659 6.82335e-19)
(0.453479 0.35953 -4.10335e-19)
(0.334768 0.254648 -4.76239e-19)
(0.205874 0.144844 5.58727e-19)
(0.0919645 0.0658828 -3.30639e-19)
(0.0178186 0.0159841 5.88668e-19)
(0.427326 0.351646 2.16879e-19)
(0.9474 0.753589 2.40151e-19)
(1.16316 0.948234 4.93633e-20)
(1.20733 0.990542 1.60288e-20)
(1.17848 0.994085 7.20539e-21)
(1.11874 0.964434 -6.99907e-20)
(1.04476 0.928088 3.32266e-20)
(0.968735 0.888485 -1.99856e-20)
(0.884897 0.844453 -5.93899e-19)
(0.794597 0.793141 -1.08996e-18)
(0.70707 0.733633 6.92398e-20)
(0.638053 0.670863 0)
(0.590361 0.609529 0)
(0.542598 0.540958 -2.98726e-19)
(0.497732 0.449734 -1.11649e-18)
(0.427318 0.357963 8.83893e-19)
(0.327821 0.235162 5.20602e-19)
(0.213818 0.126053 0)
(0.10633 0.0394163 1.05932e-18)
(0.0115832 -0.00953509 -6.28368e-19)
(0.426464 0.364908 -1.14992e-19)
(0.940104 0.778388 1.01795e-19)
(1.15191 0.977515 -1.19184e-19)
(1.19476 1.02125 -9.57845e-20)
(1.16535 1.02417 -1.33787e-20)
(1.10538 0.993503 -2.22938e-20)
(1.03138 0.956445 0)
(0.955207 0.916289 -5.7599e-19)
(0.87061 0.871656 7.27154e-20)
(0.778191 0.819792 0)
(0.688211 0.760224 0)
(0.613729 0.697671 1.11772e-19)
(0.555203 0.62911 1.50244e-19)
(0.516721 0.549649 -3.2257e-19)
(0.465527 0.463122 8.01392e-19)
(0.395517 0.334846 -9.63084e-19)
(0.302805 0.211736 -1.11423e-18)
(0.22504 0.108693 9.87013e-19)
(0.165518 0.0836886 -3.76872e-19)
(0.112945 0.0789963 2.19308e-19)
(0.425688 0.377349 1.44798e-19)
(0.933952 0.803039 0)
(1.14125 1.00541 0)
(1.18245 1.04967 -2.61711e-20)
(1.15263 1.05254 2.11879e-20)
(1.09264 1.02116 -2.05232e-20)
(1.01875 0.983388 1.47839e-19)
(0.942198 0.942454 5.89913e-19)
(0.856686 0.89746 1.0773e-18)
(0.763116 0.845671 -8.1982e-20)
(0.669827 0.785823 1.69428e-19)
(0.590967 0.720235 -9.99641e-19)
(0.531469 0.651309 -9.96398e-19)
(0.470747 0.569232 -1.73131e-19)
(0.415697 0.449337 0)
(0.354972 0.331644 -6.37462e-21)
(0.279388 0.142263 6.14019e-19)
(0.256925 0.0071396 -1.03302e-18)
(0.220825 -0.0941202 7.85344e-19)
(0.085896 -0.0969468 6.50828e-19)
(0.424685 0.389422 -3.20125e-19)
(0.927147 0.824965 -1.44569e-19)
(1.13072 1.03116 6.95123e-21)
(1.17074 1.07673 5.61005e-20)
(1.14044 1.07906 0)
(1.08028 1.0469 -7.14504e-20)
(1.00644 1.00874 -2.12648e-19)
(0.929851 0.967683 -1.66346e-21)
(0.843768 0.922547 -5.6448e-19)
(0.748128 0.870713 -8.04466e-20)
(0.652106 0.811808 7.47208e-20)
(0.567923 0.748695 8.78152e-19)
(0.494316 0.674473 9.72307e-19)
(0.439474 0.57884 1.68641e-19)
(0.37591 0.472198 8.61631e-19)
(0.286991 0.298803 0)
(0.165825 0.127645 0)
(-0.000460287 0.197435 7.09916e-19)
(-0.078025 0.630066 -2.90678e-20)
(0.00772095 1.53849 -8.75561e-19)
(0.423832 0.400759 1.77004e-19)
(0.921528 0.847233 4.04952e-19)
(1.12075 1.05608 -5.54567e-19)
(1.15917 1.10205 2.77066e-19)
(1.12845 1.10457 -7.04391e-21)
(1.06827 1.0721 -2.4548e-20)
(0.994541 1.0337 0)
(0.917601 0.992381 -4.91705e-19)
(0.830612 0.947526 0)
(0.7339 0.896564 1.13327e-18)
(0.634653 0.838461 -9.09426e-20)
(0.545474 0.773484 1.01973e-19)
(0.471029 0.702189 1.11373e-18)
(0.385826 0.614045 -3.65772e-19)
(0.284373 0.464369 -4.38237e-19)
(0.193534 0.353235 0)
(0.0843134 0.492241 0)
(0.0256495 1.33824 0)
(0.072191 2.46534 -4.03191e-19)
(0.0993477 2.91176 -2.48363e-19)
(0.422485 0.411537 0)
(0.915126 0.866586 0)
(1.11088 1.07895 2.02434e-19)
(1.14825 1.12633 -2.24896e-19)
(1.11705 1.12852 9.87779e-20)
(1.0567 1.09564 3.1519e-20)
(0.983025 1.05727 2.74396e-20)
(0.906076 1.0164 -2.13637e-20)
(0.818657 0.972077 7.9599e-20)
(0.719984 0.921832 -1.3006e-18)
(0.617784 0.865569 1.64844e-19)
(0.523424 0.805983 8.77845e-19)
(0.431762 0.734472 -1.10948e-18)
(0.351239 0.626773 -1.21941e-18)
(0.266508 0.5243 4.10202e-19)
(0.187806 0.661563 0)
(0.119903 1.56533 5.65892e-19)
(0.122045 2.6953 6.1844e-19)
(0.130013 3.08864 -6.913e-19)
(0.121911 3.22254 7.40891e-19)
(0.421343 0.422058 0)
(0.909982 0.886536 3.58932e-19)
(1.10162 1.10118 -5.07203e-20)
(1.13751 1.1489 3.1652e-19)
(1.10591 1.15149 -1.03684e-19)
(1.04555 1.11864 0)
(0.971995 1.08042 0)
(0.894745 1.03972 0)
(0.806556 0.996272 4.48515e-19)
(0.707143 0.947825 6.00411e-20)
(0.602076 0.893708 0)
(0.502882 0.833539 -8.72944e-19)
(0.415849 0.766184 0)
(0.300049 0.675003 8.7266e-19)
(0.203678 0.736112 -5.88794e-19)
(0.152183 1.46321 -4.73302e-19)
(0.154829 2.68284 -1.1029e-18)
(0.177084 3.12667 -5.81213e-19)
(0.167873 3.26685 -7.87911e-19)
(0.154203 3.30708 5.88936e-19)
(0.41982 0.431551 -1.2555e-19)
(0.903933 0.90336 1.53298e-20)
(1.09242 1.12137 -5.65236e-20)
(1.12746 1.17064 -2.44466e-19)
(1.0954 1.1731 0)
(1.03489 1.1401 0)
(0.96139 1.10221 0)
(0.88421 1.0624 3.43597e-20)
(0.795834 1.02004 -5.66948e-19)
(0.694689 0.972913 0)
(0.587142 0.920986 0)
(0.485475 0.867728 0)
(0.374776 0.800332 0)
(0.306265 0.767133 6.38186e-19)
(0.269897 1.15815 1.56845e-18)
(0.245762 2.389 4.63501e-19)
(0.260394 3.08288 9.32973e-19)
(0.255005 3.28198 -7.15282e-19)
(0.206355 3.34757 2.63807e-19)
(0.174079 3.36038 0)
(0.418515 0.440824 1.29319e-19)
(0.899074 0.921679 -7.9794e-19)
(1.08365 1.14177 -2.14187e-19)
(1.11734 1.19131 -4.70396e-20)
(1.08491 1.19437 2.40566e-20)
(1.02443 1.16165 -8.1967e-20)
(0.951077 1.12418 -2.98742e-21)
(0.873706 1.08482 -3.83355e-19)
(0.784752 1.04377 0)
(0.683367 0.999215 -7.60944e-20)
(0.574043 0.950978 6.92225e-20)
(0.468026 0.89776 0)
(0.376141 0.843905 0)
(0.320309 0.955805 -7.98806e-19)
(0.271121 1.85491 9.90362e-20)
(0.267616 2.94405 -3.48265e-19)
(0.290842 3.28589 7.27892e-19)
(0.262897 3.38425 5.2672e-19)
(0.197648 3.40868 -7.15746e-19)
(0.172996 3.41839 3.54535e-19)
(0.416493 0.450324 2.54431e-19)
(0.892462 0.937857 7.78424e-19)
(1.07403 1.16164 2.57128e-19)
(1.10709 1.21293 0)
(1.07428 1.21587 0)
(1.01376 1.18299 6.39613e-20)
(0.940578 1.14588 6.90261e-20)
(0.863499 1.1076 3.4182e-19)
(0.774725 1.06787 2.22225e-20)
(0.672067 1.02493 9.73567e-19)
(0.561453 0.978669 -1.15008e-18)
(0.449859 0.928509 0)
(0.373715 0.919295 0)
(0.333592 1.32578 -5.44646e-19)
(0.333388 2.49094 -6.5464e-19)
(0.376864 3.1972 0)
(0.40137 3.36752 -7.36822e-19)
(0.331264 3.4302 4.88989e-20)
(0.262216 3.47515 3.46093e-19)
(0.239842 3.50047 -1.14252e-19)
(0.414519 0.460159 -4.84303e-19)
(0.886782 0.957964 -3.73932e-19)
(1.06405 1.18377 0)
(1.09575 1.23492 0)
(1.06269 1.23844 0)
(1.00237 1.20576 0)
(0.929571 1.169 -8.1304e-20)
(0.852565 1.13103 3.00521e-19)
(0.763541 1.09261 0)
(0.661579 1.05257 -8.86463e-19)
(0.550927 1.01089 2.06279e-18)
(0.441638 0.972257 8.42025e-20)
(0.393431 1.04518 1.12427e-19)
(0.385756 1.74827 8.87934e-19)
(0.399072 2.90154 -4.77753e-19)
(0.437497 3.31844 0)
(0.420839 3.44102 2.06676e-19)
(0.335315 3.52953 9.15558e-20)
(0.260327 3.59325 1.48786e-19)
(0.184971 3.57271 -1.21038e-20)
(0.411511 0.470508 2.30524e-19)
(0.87837 0.975326 -3.82649e-19)
(1.05259 1.20547 0)
(1.08388 1.25857 -6.87957e-20)
(1.05055 1.26171 2.35835e-19)
(0.990373 1.22858 0)
(0.91803 1.19193 0)
(0.841695 1.15494 -5.21763e-19)
(0.753442 1.11773 -5.68655e-20)
(0.650999 1.07922 8.69443e-19)
(0.53653 1.03835 -9.8049e-19)
(0.44635 1.01607 5.72122e-19)
(0.407707 1.22502 0)
(0.420881 2.18743 -4.70903e-19)
(0.464515 3.14516 3.08714e-19)
(0.528249 3.42145 1.93878e-19)
(0.519916 3.51744 0)