/*--------------------------------*- C++ -*----------------------------------*\
| =========                 |                                                 |
| \\      /  F ield         | OpenFOAM: The Open Source CFD Toolbox           |
|  \\    /   O peration     | Version:  v2012                                 |
|   \\  /    A nd           | Website:  www.openfoam.com                      |
|    \\/     M anipulation  |                                                 |
\*---------------------------------------------------------------------------*/
FoamFile
{
    version     2.0;
    format      ascii;
    class       volScalarField;
    location    "37";
    object      p;
}
// * * * * * * * * * * * * * * * * * * * * * * * * * * * * * * * * * * * * * //

dimensions      [0 2 -2 0 0 0 0];


internalField   nonuniform List<scalar> 
2200
(
0.821311
0.79981
0.7839
0.768229
0.753615
0.741083
0.730713
0.722576
0.716838
0.713821
0.714223
0.717968
0.724237
0.732747
0.743386
0.756117
0.770875
0.786735
0.802745
0.824251
0.753759
0.750501
0.747573
0.743447
0.737968
0.73148
0.724842
0.718858
0.714306
0.711837
0.712235
0.715466
0.720581
0.726988
0.733931
0.740649
0.746291
0.750416
0.753301
0.756636
0.713876
0.714094
0.716136
0.717465
0.717845
0.716973
0.714962
0.712262
0.709681
0.708136
0.708604
0.710955
0.714149
0.717306
0.719616
0.720619
0.720333
0.719277
0.717552
0.71731
0.691362
0.692807
0.69541
0.697874
0.700313
0.702319
0.703458
0.703653
0.703234
0.702876
0.703415
0.704678
0.705793
0.706114
0.705371
0.703659
0.701464
0.699226
0.696622
0.695209
0.677097
0.679069
0.681885
0.684708
0.687541
0.690342
0.692773
0.694587
0.695746
0.696438
0.697054
0.697426
0.697095
0.695918
0.693989
0.691573
0.688988
0.686249
0.683461
0.68153
0.669866
0.671467
0.673656
0.676163
0.678799
0.681432
0.683971
0.686336
0.688284
0.689681
0.690403
0.690297
0.689341
0.687727
0.685753
0.683546
0.681184
0.678825
0.676717
0.675139
0.666477
0.667498
0.668761
0.670619
0.672756
0.674903
0.677045
0.679269
0.681403
0.683137
0.684005
0.683839
0.68292
0.681595
0.680117
0.678464
0.676697
0.675067
0.673926
0.672913
0.663931
0.664596
0.665227
0.666529
0.668139
0.669797
0.671493
0.673325
0.675249
0.677047
0.678103
0.678209
0.677749
0.677004
0.676112
0.675073
0.673932
0.672949
0.672468
0.671797
0.660904
0.661351
0.661748
0.662737
0.663984
0.665335
0.66677
0.668322
0.670001
0.671736
0.673022
0.67361
0.673692
0.673488
0.673053
0.672455
0.671767
0.671154
0.670928
0.670469
0.657037
0.657337
0.657697
0.658575
0.659689
0.660952
0.662362
0.663908
0.665587
0.667382
0.668967
0.670012
0.670518
0.670636
0.670475
0.670122
0.669671
0.669227
0.669048
0.668734
0.652504
0.652695
0.653083
0.653953
0.655092
0.656434
0.657969
0.659672
0.661533
0.663563
0.665505
0.666927
0.667751
0.668092
0.668098
0.667903
0.667578
0.667234
0.66706
0.666845
0.647619
0.64775
0.648129
0.648994
0.650209
0.651706
0.653437
0.655376
0.657531
0.659926
0.662318
0.664184
0.665315
0.665881
0.666032
0.665918
0.665697
0.665466
0.665322
0.66517
0.642519
0.642608
0.642983
0.64381
0.645054
0.646668
0.648636
0.65095
0.653602
0.656576
0.659535
0.661821
0.663234
0.663985
0.664306
0.664378
0.664341
0.664241
0.664139
0.664013
0.636992
0.637047
0.637426
0.638286
0.639608
0.641348
0.643522
0.646208
0.649445
0.653158
0.656767
0.659462
0.66121
0.662288
0.662947
0.663324
0.663468
0.663499
0.663449
0.663338
0.630984
0.630983
0.631395
0.632297
0.63377
0.635671
0.638034
0.640983
0.644667
0.649071
0.65351
0.657
0.659432
0.661129
0.662254
0.662886
0.663213
0.663359
0.663358
0.663268
0.62462
0.624526
0.62495
0.62593
0.627562
0.629696
0.632324
0.635601
0.639738
0.644869
0.650365
0.655007
0.658394
0.66078
0.662361
0.66329
0.663848
0.66411
0.664159
0.664088
0.617727
0.617726
0.618065
0.619068
0.620982
0.623439
0.626561
0.630516
0.635513
0.641704
0.648449
0.654221
0.658452
0.661412
0.663427
0.664773
0.665607
0.666012
0.666117
0.666048
0.609857
0.609837
0.610273
0.611506
0.613692
0.616573
0.620384
0.625335
0.631586
0.639286
0.647515
0.654418
0.659449
0.663075
0.665655
0.667412
0.668483
0.669048
0.669219
0.669146
0.600797
0.60071
0.601256
0.602728
0.605188
0.608569
0.613132
0.619097
0.62679
0.636317
0.646421
0.654864
0.661112
0.665654
0.668914
0.671162
0.672584
0.673354
0.673597
0.67351
0.58993
0.58982
0.59042
0.592096
0.594998
0.599011
0.60442
0.61158
0.620857
0.632454
0.644884
0.655358
0.663196
0.668982
0.67316
0.676078
0.677987
0.678994
0.679317
0.679201
0.576816
0.576691
0.577377
0.579325
0.582768
0.587695
0.594441
0.603319
0.614753
0.62893
0.644022
0.656745
0.666264
0.673377
0.678569
0.682307
0.684786
0.686054
0.686449
0.686291
0.560367
0.56028
0.561245
0.563722
0.568133
0.574471
0.583091
0.594426
0.608808
0.626201
0.644312
0.659444
0.670789
0.679264
0.685533
0.690051
0.693053
0.694552
0.694997
0.694795
0.539647
0.539491
0.540799
0.544176
0.550016
0.558426
0.569747
0.584358
0.602413
0.62369
0.645385
0.663235
0.676558
0.686532
0.693923
0.69928
0.702821
0.704545
0.70504
0.70479
0.512273
0.51232
0.514427
0.519187
0.527328
0.538904
0.553979
0.572764
0.595244
0.621064
0.646844
0.667833
0.683433
0.695139
0.70387
0.710179
0.714271
0.716199
0.716713
0.716408
0.475375
0.475681
0.479324
0.487071
0.499162
0.515561
0.535835
0.559977
0.587791
0.6188
0.649081
0.673449
0.691493
0.705034
0.71519
0.722591
0.727288
0.729424
0.729954
0.729557
0.425841
0.426284
0.433412
0.446433
0.46503
0.48858
0.515819
0.54663
0.580738
0.617585
0.652688
0.680522
0.701037
0.716516
0.728194
0.736623
0.741802
0.743978
0.744382
0.743958
0.359898
0.362875
0.378272
0.399756
0.42727
0.459508
0.494852
0.533206
0.574347
0.617729
0.658253
0.690243
0.714016
0.732017
0.745624
0.755635
0.761769
0.764152
0.764377
0.764157
0.28466
0.294408
0.320141
0.351623
0.389202
0.430416
0.473845
0.519969
0.568522
0.618938
0.665731
0.702765
0.730397
0.751547
0.7679
0.77985
0.787198
0.789664
0.789781
0.789944
0.217878
0.232972
0.265196
0.30519
0.352128
0.402142
0.45358
0.507459
0.563347
0.62064
0.673286
0.714867
0.746039
0.769932
0.788116
0.801545
0.809767
0.813352
0.814137
0.814112
0.16731
0.180836
0.218372
0.264226
0.318283
0.375582
0.434443
0.495633
0.558445
0.622277
0.680488
0.726347
0.760409
0.78632
0.806215
0.821179
0.829976
0.833818
0.834561
0.83465
0.125687
0.138297
0.179318
0.229045
0.288488
0.351564
0.416792
0.484463
0.553562
0.623537
0.687209
0.736738
0.773263
0.800912
0.821798
0.837493
0.846849
0.850955
0.851848
0.851958
0.0898646
0.10273
0.146137
0.198689
0.262324
0.330023
0.400606
0.473889
0.548693
0.62447
0.692916
0.74561
0.784165
0.813004
0.834644
0.85049
0.860235
0.864676
0.865749
0.865857
0.0586
0.0716239
0.117012
0.172041
0.239063
0.310567
0.385657
0.46376
0.543654
0.624379
0.69698
0.752665
0.792937
0.822747
0.84474
0.860841
0.871156
0.875851
0.877133
0.87723
0.030575
0.0436677
0.090703
0.147987
0.217928
0.292661
0.371581
0.453846
0.538218
0.623651
0.700609
0.758806
0.800366
0.830907
0.853562
0.869918
0.880503
0.885465
0.886834
0.886889
0.00494003
0.0180075
0.0662913
0.125739
0.198293
0.275844
0.358103
0.444079
0.532582
0.622452
0.702769
0.763574
0.806786
0.838265
0.861414
0.87799
0.8887
0.893706
0.895047
0.894854
-0.0191522
-0.00573077
0.0433449
0.104819
0.179652
0.259718
0.34492
0.434141
0.526207
0.619731
0.704003
0.767991
0.812664
0.844949
0.868504
0.885208
0.895614
0.900677
0.901992
0.901834
-0.0417678
-0.0282492
0.0216273
0.0849133
0.161722
0.24401
0.331755
0.423792
0.519151
0.616712
0.70538
0.771707
0.818313
0.851526
0.875144
0.891849
0.902285
0.907131
0.908555
0.908447
-0.0631319
-0.0496322
0.000928705
0.0657485
0.14424
0.228504
0.318532
0.413222
0.511831
0.613114
0.704957
0.774682
0.823673
0.857714
0.881868
0.898484
0.908788
0.913568
0.914829
0.914759
-0.083755
-0.070018
-0.0189584
0.0471241
0.12705
0.213122
0.305286
0.402407
0.503782
0.608224
0.70421
0.777887
0.828773
0.864295
0.888783
0.905288
0.915385
0.919889
0.921107
0.920995
-0.104041
-0.0896556
-0.0382174
0.0289514
0.110113
0.197823
0.291919
0.39118
0.495003
0.602725
0.702889
0.779716
0.833781
0.8711
0.896189
0.912526
0.922052
0.926282
0.927219
0.927083
-0.124017
-0.108802
-0.0569796
0.0111906
0.0934265
0.182566
0.278351
0.379556
0.485791
0.59663
0.700399
0.781219
0.83861
0.878195
0.904367
0.920433
0.929086
0.93247
0.933126
0.932941
-0.143523
-0.12757
-0.0753038
-0.00618427
0.0769808
0.167348
0.264627
0.367635
0.476118
0.589633
0.696611
0.781551
0.842836
0.885662
0.913607
0.929488
0.93661
0.938528
0.938582
0.938433
-0.16245
-0.14594
-0.0931777
-0.0231654
0.0608143
0.152233
0.250819
0.355446
0.46584
0.581523
0.691594
0.78083
0.846492
0.893376
0.924135
0.940554
0.945774
0.944038
0.943303
0.944031
-0.180758
-0.163839
-0.110549
-0.0397079
0.0449908
0.137299
0.236979
0.342943
0.454933
0.572663
0.685698
0.778624
0.849067
0.900916
0.935917
0.954333
0.958356
0.952365
0.946871
0.944962
-0.198428
-0.181157
-0.127348
-0.0557575
0.0295789
0.12262
0.223174
0.330221
0.443594
0.563111
0.678254
0.774726
0.850104
0.907821
0.948739
0.971554
0.978701
0.966615
0.963775
0.968224
-0.215456
-0.197842
-0.14352
-0.0712561
0.0146416
0.108274
0.209505
0.317405
0.431889
0.552843
0.669911
0.769418
0.84913
0.912961
0.961384
0.991871
1.00585
0.979829
0.93661
0.897222
-0.231777
-0.213886
-0.159095
-0.0862741
7.80333e-05
0.0941502
0.195855
0.304354
0.419655
0.541773
0.660359
0.761786
0.845094
0.915175
0.972468
1.01426
1.04315
1.03598
1.05302
1.10711
-0.247348
-0.229352
-0.174171
-0.10095
-0.0142934
0.0800291
0.181966
0.290752
0.406477
0.529254
0.64883
0.751376
0.837166
0.911639
0.973643
1.01901
1.04115
1.02958
0.993389
1.0049
-0.262137
-0.244196
-0.1887
-0.115236
-0.0284053
0.066001
0.167972
0.276769
0.39253
0.515522
0.635505
0.738125
0.823504
0.898222
0.95961
1.0027
0.999296
0.952013
0.89122
0.880063
-0.276148
-0.258428
-0.202687
-0.129135
-0.0422625
0.052059
0.153881
0.26245
0.377878
0.500476
0.619933
0.72148
0.804353
0.873444
0.92809
0.943816
0.912967
0.84053
0.76806
0.750244
-0.28941
-0.272026
-0.216142
-0.14267
-0.0558921
0.0381833
0.139686
0.247798
0.362541
0.484129
0.602206
0.701592
0.778539
0.835125
0.865236
0.856449
0.805144
0.705667
0.619552
0.599816
-0.302388
-0.285418
-0.229465
-0.156209
-0.0696465
0.024061
0.125104
0.232563
0.346309
0.466322
0.582297
0.677872
0.747615
0.788306
0.784331
0.75183
0.646111
0.525646
0.419501
0.394454
-0.315977
-0.299376
-0.243355
-0.170383
-0.0841033
0.00920561
0.109712
0.216369
0.328869
0.446856
0.559765
0.6501
0.712734
0.730056
0.695964
0.611455
0.457085
0.305847
0.178239
0.152289
-0.330709
-0.314343
-0.258139
-0.185424
-0.099442
-0.0065157
0.0934133
0.199166
0.310211
0.425726
0.53463
0.619488
0.670925
0.661401
0.606966
0.459402
0.259221
0.0463194
-0.133675
-0.180529
-0.346676
-0.33037
-0.273869
-0.201358
-0.115641
-0.0230735
0.0762409
0.180981
0.290405
0.403106
0.506918
0.586245
0.622436
0.581862
0.493768
0.304699
0.0707287
-0.220827
-0.54504
-0.69018
-0.363963
-0.3476
-0.290665
-0.21826
-0.132745
-0.0405285
0.0581341
0.16178
0.269444
0.379047
0.476993
0.550495
0.569481
0.497261
0.360165
0.151021
-0.0879224
-0.437461
-1.03202
-1.60796
-0.382624
-0.36606
-0.308584
-0.236195
-0.150775
-0.0588662
0.039142
0.141651
0.247496
0.353927
0.445956
0.511768
0.513231
0.421618
0.230025
-0.00912245
-0.218406
-0.461369
-1.03198
-2.57915
-0.402668
-0.385904
-0.327729
-0.255275
-0.169883
-0.0782806
0.0190423
0.120347
0.224223
0.327324
0.413584
0.470105
0.452463
0.362077
0.13334
-0.111816
-0.2659
-0.309697
-0.308731
-0.704307
-0.423991
-0.407154
-0.348257
-0.275807
-0.190465
-0.0992472
-0.00276455
0.097117
0.19871
0.297901
0.378792
0.425142
0.391261
0.313301
0.0812322
-0.129553
-0.246253
-0.257228
-0.206431
-0.248478
-0.446554
-0.429768
-0.370167
-0.297826
-0.21258
-0.121882
-0.0264106
0.0718292
0.170786
0.26549
0.34165
0.378341
0.337265
0.262065
0.047309
-0.122565
-0.207891
-0.215379
-0.262765
-0.269447
-0.470235
-0.453444
-0.393368
-0.321345
-0.236211
-0.14618
-0.0519255
0.0444295
0.140453
0.230451
0.302105
0.329952
0.289257
0.201307
0.0192523
-0.113114
-0.188277
-0.158688
-0.181403
-0.183231
-0.49489
-0.477844
-0.417763
-0.346231
-0.261185
-0.172056
-0.0792032
0.0150493
0.107858
0.193281
0.260394
0.278327
0.247154
0.134453
-0.0149424
-0.107669
-0.156699
-0.196747
-0.173243
-0.181104
-0.520039
-0.502655
-0.443225
-0.372329
-0.287285
-0.199312
-0.10803
-0.0160357
0.0731942
0.154318
0.217381
0.22514
0.204786
0.0715251
-0.053719
-0.121907
-0.111328
-0.171543
-0.147156
-0.15281
-0.545079
-0.527497
-0.469538
-0.399167
-0.314144
-0.227679
-0.138075
-0.0484819
0.0367005
0.113863
0.174018
0.173099
0.154388
0.0185694
-0.0835222
-0.14071
-0.117919
-0.145583
-0.147707
-0.148101
-0.569408
-0.552094
-0.495851
-0.426064
-0.341445
-0.256739
-0.168889
-0.0817399
-0.000861491
0.0724179
0.131469
0.124407
0.0984145
-0.026458
-0.100803
-0.138573
-0.160731
-0.147289
-0.15319
-0.14993
-0.592299
-0.575696
-0.521154
-0.452138
-0.368735
-0.285903
-0.199866
-0.115231
-0.0386344
0.0301838
0.0887153
0.0780534
0.0407034
-0.0638177
-0.116351
-0.122903
-0.181166
-0.146232
-0.153898
-0.147481
-0.612841
-0.59736
-0.544503
-0.476534
-0.395598
-0.314359
-0.230218
-0.148169
-0.0753957
-0.0119779
0.0464202
0.0324931
-0.0138655
-0.0876681
-0.133119
-0.121947
-0.179164
-0.135624
-0.141335
-0.136013
-0.629788
-0.615834
-0.565204
-0.498711
-0.420812
-0.341036
-0.259021
-0.17963
-0.110107
-0.0530951
0.00522261
-0.0123973
-0.0684002
-0.102154
-0.118541
-0.104577
-0.114508
-0.121465
-0.126911
-0.127295
-0.642067
-0.630076
-0.582273
-0.51785
-0.442899
-0.364925
-0.285272
-0.208537
-0.141684
-0.0914881
-0.0342518
-0.0547003
-0.129901
-0.123524
-0.0523345
-0.0308498
-0.0584401
-0.105763
-0.125439
-0.133911
-0.64856
-0.638807
-0.594704
-0.532684
-0.460368
-0.384839
-0.307749
-0.23352
-0.16871
-0.124429
-0.070667
-0.0900311
-0.199273
-0.240616
-0.175059
-0.204086
-0.213454
-0.223288
-0.229904
-0.226494
-0.648684
-0.640936
-0.600819
-0.54171
-0.472266
-0.399446
-0.325011
-0.252985
-0.189682
-0.148468
-0.10232
-0.119344
-0.27882
-0.496641
-0.692998
-0.807875
-0.823417
-0.761329
-0.702928
-0.657685
-0.641556
-0.634332
-0.599071
-0.543746
-0.47749
-0.407569
-0.335636
-0.265203
-0.201952
-0.159782
-0.122645
-0.131395
-0.323807
-0.674624
-1.13542
-1.36244
-1.36546
-1.31193
-1.21715
-1.14129
-0.62321
-0.615566
-0.587025
-0.537342
-0.475222
-0.408351
-0.338575
-0.268518
-0.202615
-0.154363
-0.119175
-0.104911
-0.234867
-0.457567
-0.742181
-0.841847
-0.773959
-0.690857
-0.576963
-0.507106
-0.587312
-0.580472
-0.563575
-0.522653
-0.465288
-0.401237
-0.333311
-0.262107
-0.190126
-0.127963
-0.0782945
-0.00523036
0.0714712
0.225511
0.353746
0.492849
0.622603
0.712166
0.768619
0.826712
-0.541567
-0.537764
-0.532643
-0.500413
-0.449534
-0.388023
-0.320125
-0.246289
-0.165501
-0.080365
0.00213916
0.148206
0.380101
0.752891
1.11628
1.41647
1.63244
1.76671
1.83383
1.85399
-0.508361
-0.508338
-0.502494
-0.478008
-0.431993
-0.371294
-0.301286
-0.223681
-0.134414
-0.02846
0.0848026
0.240244
0.539165
0.941378
1.33429
1.66589
1.90231
2.03695
2.09514
2.11088
-0.476277
-0.477095
-0.471432
-0.457377
-0.416019
-0.355222
-0.28216
-0.201629
-0.10941
0.000992289
0.118565
0.230418
0.490502
0.822872
1.13857
1.406
1.61221
1.73636
1.79341
1.81058
-0.447351
-0.446281
-0.445559
-0.440568
-0.400059
-0.339606
-0.2656
-0.183681
-0.0946638
0.00694977
0.11766
0.191444
0.391198
0.662501
0.910472
1.12058
1.29203
1.39893
1.44688
1.45978
-0.431635
-0.430108
-0.435643
-0.426647
-0.385462
-0.323636
-0.250292
-0.170927
-0.0888552
-0.00232424
0.100081
0.153819
0.289955
0.502658
0.698488
0.857793
0.985887
1.07057
1.10866
1.11888
-0.402791
-0.402181
-0.409516
-0.399945
-0.362773
-0.302191
-0.232488
-0.158779
-0.0848234
-0.0134432
0.0792802
0.126179
0.210581
0.371506
0.524727
0.64348
0.735921
0.798571
0.82603
0.83165
-0.347373
-0.348587
-0.354353
-0.346699
-0.317555
-0.265459
-0.206643
-0.14223
-0.0775952
-0.0197911
0.0610683
0.105981
0.156151
0.275391
0.391766
0.478615
0.544616
0.589183
0.608129
0.614561
-0.263567
-0.265783
-0.268775
-0.264223
-0.243729
-0.208966
-0.167023
-0.117815
-0.0642784
-0.0182597
0.048205
0.0897222
0.121287
0.210404
0.295219
0.356113
0.403491
0.438473
0.451388
0.454926
-0.167019
-0.168596
-0.170247
-0.168392
-0.158112
-0.139985
-0.115727
-0.0843079
-0.0440962
-0.00945012
0.0413283
0.0762457
0.0994491
0.167375
0.227382
0.268724
0.302355
0.325417
0.336418
0.339986
-0.079737
-0.0808853
-0.0822656
-0.0828962
-0.080391
-0.0742091
-0.0635506
-0.046611
-0.0205581
0.00252468
0.0385031
0.0660732
0.0825263
0.135192
0.177742
0.205298
0.227573
0.241087
0.247698
0.249443
-0.0128517
-0.0136168
-0.0150396
-0.017725
-0.0205851
-0.0217138
-0.0197506
-0.0130129
0.000745399
0.0141344
0.0367948
0.0586754
0.0686622
0.108584
0.137142
0.15616
0.169547
0.176142
0.178064
0.177789
0.0298685
0.0293313
0.027953
0.024181
0.0181382
0.0131766
0.0104367
0.0109769
0.0163974
0.0238693
0.0365023
0.0509574
0.0592935
0.0847955
0.104586
0.117725
0.124755
0.12706
0.126298
0.124901
0.0529314
0.0524784
0.0511727
0.0472119
0.0402503
0.0336611
0.0284773
0.0256524
0.0268927
0.03116
0.0388191
0.046213
0.0535049
0.0669059
0.0784732
0.0859046
0.0893269
0.0893571
0.0879045
0.0863343
0.0627984
0.0624255
0.0613089
0.057902
0.0517083
0.045148
0.0392674
0.0349489
0.03424
0.0359264
0.0419416
0.0452483
0.0493047
0.0555304
0.0600188
0.0616484
0.0624644
0.0605893
0.0584423
0.0571839
0.0655146
0.0652144
0.0643249
0.0616796
0.056833
0.0513675
0.0459957
0.0411947
0.0394076
0.0386972
0.04297
0.0457101
0.0469722
0.0496832
0.0509339
0.0507862
0.0497357
0.0480542
0.0457262
0.044016
0.0643976
0.0641781
0.0634798
0.061627
0.0580751
0.0538272
0.0493441
0.0447228
0.0422183
0.0400764
0.0417765
0.043706
0.0447827
0.0470604
0.0481542
0.0479622
0.0465556
0.0451015
0.0435662
0.0417276
0.0616036
0.0614383
0.0608762
0.0595294
0.0568165
0.0536165
0.0499523
0.0459291
0.0432163
0.0402607
0.0399624
0.0399764
0.0402734
0.0421225
0.0444736
0.0448559
0.0453719
0.0440429
0.0429576
0.0416777
0.0580722
0.057933
0.0574738
0.0565022
0.0544935
0.0521355
0.0492259
0.0458135
0.0431444
0.0398179
0.0385048
0.0372463
0.0376231
0.038027
0.0400138
0.0426018
0.0441376
0.0449679
0.0449503
0.0434404
0.0547081
0.0545782
0.054215
0.0534627
0.0519792
0.0502804
0.0480127
0.0452499
0.0425297
0.038646
0.0367478
0.0335298
0.0339056
0.0362464
0.0395875
0.0435462
0.0453244
0.048189
0.0502373
0.0481618
0.0518377
0.0517097
0.0514647
0.050909
0.0497819
0.0485308
0.0468728
0.044337
0.0419903
0.0378228
0.0345722
0.0303092
0.0271002
0.0321751
0.0393666
0.0446863
0.0504833
0.0526586
0.0537042
0.0524293
0.0495493
0.049425
0.0492658
0.0487993
0.0480107
0.0471819
0.0461651
0.0437512
0.0421967
0.0375696
0.0324087
0.0277065
0.0218686
0.0265462
0.0366132
0.0425235
0.047287
0.0484633
0.0481608
0.047392
0.0474935
0.0474093
0.0474147
0.0472819
0.0469331
0.0459896
0.0455365
0.0437258
0.0416046
0.0369005
0.0299402
0.0248873
0.0179263
0.0230147
0.0296824
0.0332877
0.0334384
0.0344493
0.035346
0.034591
0.0450066
0.0449309
0.044989
0.0450711
0.0452216
0.0448031
0.044645
0.0440208
0.0425079
0.0393617
0.0342959
0.0251077
0.0165989
0.0234439
0.0271622
0.0284717
0.0323177
0.0365571
0.0401477
0.0379463
0.0414905
0.0414968
0.0417129
0.0422945
0.0429612
0.0434099
0.04299
0.04355
0.043739
0.0420314
0.0422393
0.0317078
0.0217669
0.0263262
0.0307923
0.0371109
0.0485888
0.0539615
0.0540544
0.0507106
0.036234
0.0361754
0.0363674
0.0368314
0.0374842
0.0405439
0.0429459
0.0456082
0.0475019
0.0465905
0.0483601
0.0413252
0.0292463
0.0279226
0.0280939
0.0328171
0.032425
0.0299073
0.0284625
0.0259738
0.0299888
0.0299844
0.0302937
0.0311194
0.0319236
0.0347182
0.0379265
0.041688
0.0449992
0.0507634
0.0526809
0.0502357
0.0393087
0.0272889
0.0105818
-0.0032504
-0.0162191
-0.0271449
-0.0284061
-0.0272663
0.0205887
0.0206248
0.0211544
0.0224855
0.0237488
0.0251165
0.026964
0.03082
0.0382962
0.0411151
0.0457453
0.0512261
0.0416276
0.0205212
-0.00496391
-0.0254884
-0.0378972
-0.0448455
-0.0442414
-0.0383385
0.00658335
0.00631689
0.00554219
0.00403869
0.00320287
0.00350974
0.00458334
0.00667306
0.0155431
0.0190649
0.0306208
0.0386551
0.0256967
0.00890275
-0.00286203
-0.0128066
-0.0188004
-0.0197195
-0.0178585
-0.0151452
-1.04912
-0.195432
0.0752045
0.355683
0.542327
0.70329
0.836206
0.971233
1.11713
1.19606
-0.0567814
0.356108
0.376856
0.568015
0.696924
0.812143
0.911832
1.00012
1.02867
0.985673
0.32898
0.546755
0.585816
0.724083
0.813312
0.895841
0.963761
1.01462
1.01745
1.03081
0.564332
0.710881
0.747052
0.852218
0.909431
0.969709
1.01542
1.04833
1.05774
1.08118
0.746602
0.850684
0.880294
0.950691
0.994959
1.03765
1.07033
1.0949
1.10495
1.13633
0.892633
0.962766
0.993336
1.03753
1.07407
1.10484
1.12957
1.15043
1.16482
1.19296
1.01326
1.06475
1.09046
1.11896
1.14717
1.1713
1.19155
1.21092
1.22598
1.25237
1.11792
1.15535
1.17664
1.19762
1.21883
1.2385
1.25606
1.27427
1.2892
1.31285
1.21237
1.24144
1.25835
1.27389
1.29027
1.30651
1.32216
1.33916
1.35277
1.37508
1.30118
1.32178
1.33679
1.35015
1.36391
1.3778
1.39134
1.40594
1.41747
1.43712
1.38702
1.40295
1.4169
1.42883
1.44083
1.45247
1.46358
1.47525
1.4829
1.49972
1.4726
1.48546
1.49923
1.51088
1.52144
1.53118
1.53994
1.54817
1.55173
1.563
1.56176
1.57278
1.58625
1.59548
1.60291
1.61011
1.61728
1.62379
1.62482
1.63223
1.66024
1.66496
1.67299
1.67747
1.68075
1.68521
1.69121
1.69894
1.70279
1.71267
1.77347
1.7598
1.75237
1.74677
1.74411
1.74551
1.75196
1.76435
1.77914
1.8088
1.89448
1.83873
1.80787
1.79078
1.78262
1.78259
1.79133
1.81089
1.84283
1.91204
)
;

boundaryField
{
    wall-4
    {
        type            zeroGradient;
    }
    pressure-outlet-7
    {
        type            fixedValue;
        value           uniform 0;
    }
    velocity-inlet-6
    {
        type            zeroGradient;
    }
    velocity-inlet-5
    {
        type            zeroGradient;
    }
    frontAndBackPlanes
    {
        type            empty;
    }
}


// ************************************************************************* //
