/*--------------------------------*- C++ -*----------------------------------*\
| =========                 |                                                 |
| \\      /  F ield         | OpenFOAM: The Open Source CFD Toolbox           |
|  \\    /   O peration     | Version:  v2012                                 |
|   \\  /    A nd           | Website:  www.openfoam.com                      |
|    \\/     M anipulation  |                                                 |
\*---------------------------------------------------------------------------*/
FoamFile
{
    version     2.0;
    format      ascii;
    class       volScalarField;
    location    "23";
    object      p;
}
// * * * * * * * * * * * * * * * * * * * * * * * * * * * * * * * * * * * * * //

dimensions      [0 2 -2 0 0 0 0];


internalField   nonuniform List<scalar> 
2200
(
0.405737
0.384241
0.368339
0.352675
0.338073
0.325569
0.315217
0.30711
0.301375
0.298368
0.298681
0.302258
0.308421
0.316825
0.327393
0.340053
0.35476
0.370501
0.38645
0.407964
0.338139
0.334881
0.331969
0.32787
0.322433
0.315981
0.309375
0.303404
0.29883
0.296354
0.296671
0.299758
0.304769
0.311069
0.317908
0.324521
0.330078
0.334246
0.337192
0.340475
0.298202
0.298433
0.300512
0.301883
0.302302
0.301465
0.299519
0.296869
0.294292
0.292665
0.293041
0.295309
0.298365
0.30137
0.303564
0.304563
0.304254
0.303038
0.301091
0.300872
0.275781
0.277239
0.279872
0.282354
0.284793
0.286826
0.287981
0.288201
0.287824
0.287396
0.287822
0.288968
0.289902
0.290098
0.289254
0.287452
0.285191
0.282817
0.280219
0.278788
0.261494
0.263475
0.266312
0.269161
0.272049
0.274897
0.277326
0.279132
0.280255
0.280854
0.281347
0.2816
0.281137
0.279818
0.277755
0.275174
0.272467
0.269713
0.266937
0.264975
0.254126
0.255698
0.257935
0.260553
0.263298
0.26599
0.268581
0.271012
0.272959
0.274263
0.274855
0.274586
0.273429
0.271579
0.269414
0.267031
0.264507
0.262029
0.259869
0.258306
0.250981
0.251966
0.253276
0.255223
0.257437
0.259636
0.261803
0.264052
0.266204
0.267923
0.268623
0.268158
0.266969
0.265449
0.263784
0.261977
0.260042
0.258288
0.257073
0.256089
0.248867
0.249529
0.250227
0.251614
0.253311
0.255036
0.256722
0.258479
0.26029
0.261955
0.2628
0.262664
0.262023
0.261147
0.260112
0.258856
0.2575
0.256346
0.255761
0.255096
0.245988
0.246411
0.24693
0.248202
0.249756
0.251371
0.25297
0.254518
0.256051
0.257505
0.25859
0.259039
0.258956
0.258488
0.257684
0.256607
0.255455
0.254451
0.254053
0.253628
0.242418
0.242607
0.243109
0.244439
0.246053
0.247811
0.249639
0.25142
0.253096
0.25464
0.255986
0.256775
0.256877
0.256423
0.255541
0.254509
0.253396
0.252397
0.252024
0.251841
0.239042
0.239088
0.239537
0.240672
0.24209
0.243739
0.245613
0.247644
0.249724
0.25173
0.253366
0.254264
0.254345
0.253961
0.253308
0.252536
0.251684
0.250939
0.250657
0.250609
0.235806
0.235754
0.236135
0.236928
0.238025
0.239374
0.240963
0.242858
0.2451
0.247517
0.249592
0.250888
0.251477
0.251606
0.251479
0.251133
0.250752
0.250419
0.250264
0.250262
0.232327
0.23223
0.23258
0.233165
0.234113
0.235308
0.236724
0.238505
0.240715
0.24335
0.245946
0.247938
0.249298
0.250063
0.250401
0.250487
0.250476
0.250401
0.250338
0.250333
0.228553
0.228518
0.228797
0.229377
0.230362
0.231657
0.233258
0.235284
0.237757
0.240769
0.24392
0.246467
0.248262
0.2494
0.250102
0.250526
0.250709
0.250769
0.250774
0.250776
0.224301
0.224296
0.224544
0.225149
0.226194
0.227614
0.229504
0.231964
0.235024
0.238761
0.242676
0.245822
0.248001
0.249533
0.250603
0.251265
0.251605
0.251783
0.251841
0.251836
0.219111
0.219077
0.219368
0.220033
0.2211
0.222591
0.224679
0.22752
0.231231
0.235897
0.240871
0.24496
0.247865
0.249942
0.25141
0.252376
0.25299
0.253365
0.253499
0.25348
0.212924
0.212885
0.213185
0.213866
0.215005
0.216679
0.21907
0.222359
0.226784
0.232481
0.238722
0.243973
0.247839
0.250616
0.252626
0.254001
0.254911
0.255442
0.25564
0.255605
0.205345
0.205305
0.205671
0.20653
0.207961
0.210047
0.212998
0.217062
0.222505
0.229501
0.23721
0.243769
0.248642
0.252161
0.254659
0.256368
0.257512
0.25817
0.258431
0.258389
0.19643
0.196371
0.19682
0.197902
0.199721
0.202392
0.206155
0.211298
0.218145
0.226872
0.236359
0.244412
0.250348
0.254637
0.25767
0.259763
0.261141
0.261917
0.262223
0.262169
0.185544
0.185501
0.18611
0.187515
0.189835
0.193218
0.197978
0.204505
0.213149
0.224059
0.235765
0.245617
0.25286
0.258085
0.261766
0.264307
0.265975
0.266917
0.267297
0.26723
0.172322
0.17223
0.172989
0.174783
0.177759
0.18211
0.188233
0.196563
0.207469
0.221055
0.235435
0.247428
0.256228
0.262581
0.267083
0.270205
0.27227
0.273435
0.273879
0.273781
0.155815
0.155783
0.156869
0.159206
0.163092
0.16881
0.176775
0.18748
0.201273
0.218108
0.23563
0.25012
0.260745
0.268414
0.273862
0.277645
0.280126
0.281518
0.282058
0.281943
0.134986
0.134903
0.136391
0.139649
0.14498
0.152722
0.163301
0.177241
0.194687
0.215429
0.236612
0.253944
0.266616
0.275775
0.282299
0.28687
0.289922
0.291638
0.292267
0.292092
0.107537
0.107754
0.110126
0.114864
0.122464
0.133304
0.147672
0.165832
0.187781
0.213146
0.238475
0.25895
0.273874
0.284719
0.29255
0.298086
0.301762
0.303787
0.30452
0.304313
0.0709986
0.0714738
0.0754353
0.0831152
0.0946068
0.110311
0.129788
0.153311
0.180703
0.211364
0.24128
0.265194
0.282616
0.295327
0.304582
0.311246
0.315791
0.318352
0.319234
0.318883
0.0219299
0.022499
0.0300512
0.0432142
0.0612333
0.0836457
0.109914
0.140133
0.173868
0.210431
0.245282
0.272783
0.292801
0.307538
0.318443
0.326443
0.331967
0.334965
0.335838
0.335396
-0.0443445
-0.0411287
-0.024895
-0.00264789
0.0241657
0.0548461
0.0890583
0.12678
0.16754
0.210749
0.251197
0.283031
0.306489
0.324032
0.337288
0.347351
0.354693
0.358565
0.359516
0.359249
-0.121172
-0.110048
-0.0823885
-0.050271
-0.0137759
0.025778
0.0681492
0.113597
0.161729
0.212027
0.258794
0.295792
0.323349
0.344408
0.360774
0.37351
0.383427
0.389145
0.3914
0.391743
-0.187606
-0.171118
-0.136554
-0.0961898
-0.0506406
-0.002553
0.0479062
0.101089
0.156541
0.213746
0.266526
0.308199
0.339257
0.363182
0.38193
0.396569
0.40771
0.414775
0.417414
0.417494
-0.23686
-0.222436
-0.182729
-0.136655
-0.0841472
-0.0289754
0.0288005
0.0891952
0.151493
0.215105
0.273311
0.318922
0.352907
0.37887
0.399162
0.414937
0.42667
0.433782
0.436468
0.436702
-0.27751
-0.26399
-0.221125
-0.171329
-0.113662
-0.0528351
0.0111339
0.0777745
0.146169
0.215691
0.278931
0.328171
0.36434
0.391519
0.412253
0.428205
0.440174
0.447566
0.450495
0.450784
-0.312543
-0.29875
-0.253688
-0.201337
-0.139644
-0.0742605
-0.00517892
0.0667743
0.140627
0.21564
0.283398
0.335364
0.372884
0.400725
0.421995
0.438278
0.450511
0.458114
0.461237
0.46151
-0.343131
-0.329263
-0.282316
-0.227766
-0.162792
-0.0937034
-0.020377
0.0561744
0.134922
0.214712
0.286285
0.34053
0.379535
0.408287
0.429802
0.446192
0.458541
0.466279
0.469687
0.469779
-0.370796
-0.35694
-0.308313
-0.251515
-0.183697
-0.111607
-0.0347313
0.0457792
0.128772
0.212746
0.287979
0.344979
0.385398
0.41485
0.436922
0.453572
0.465767
0.473701
0.476598
0.476526
-0.396127
-0.382406
-0.332423
-0.273382
-0.202997
-0.128389
-0.0485218
0.0353921
0.122121
0.210157
0.289248
0.348828
0.39063
0.421121
0.443605
0.460286
0.472417
0.480064
0.483109
0.483155
-0.420021
-0.40597
-0.355039
-0.29401
-0.221289
-0.144435
-0.0619651
0.0249155
0.115051
0.206944
0.289844
0.35228
0.396273
0.427511
0.450297
0.46702
0.479116
0.486685
0.489704
0.489844
-0.442507
-0.428257
-0.37666
-0.313859
-0.239081
-0.160092
-0.0752289
0.0143216
0.107609
0.203148
0.289944
0.35568
0.401418
0.433742
0.45708
0.474066
0.486158
0.493483
0.496584
0.496736
-0.463729
-0.449509
-0.39741
-0.333198
-0.256695
-0.175654
-0.0884957
0.00353454
0.0997191
0.198787
0.289504
0.358457
0.406268
0.440018
0.464021
0.481218
0.493438
0.500763
0.503668
0.503784
-0.484169
-0.469818
-0.417392
-0.352058
-0.274177
-0.191258
-0.101931
-0.00757418
0.0912973
0.193661
0.288085
0.3603
0.411119
0.446614
0.471429
0.488867
0.501008
0.50801
0.510893
0.510939
-0.504335
-0.489407
-0.436705
-0.370404
-0.29143
-0.206902
-0.115637
-0.0191089
0.0822461
0.187613
0.28572
0.361707
0.41565
0.453265
0.479275
0.497022
0.508966
0.515834
0.518335
0.518241
-0.524219
-0.508477
-0.455453
-0.388227
-0.308355
-0.22251
-0.129603
-0.0311558
0.0724138
0.180388
0.281797
0.361811
0.419428
0.460171
0.487874
0.506105
0.517487
0.523472
0.525674
0.525487
-0.543646
-0.527152
-0.473699
-0.405538
-0.32488
-0.237983
-0.143753
-0.0437072
0.0617572
0.172114
0.277072
0.361466
0.423109
0.467158
0.497342
0.516319
0.526867
0.531685
0.532989
0.532627
-0.562432
-0.545414
-0.491463
-0.422368
-0.340974
-0.253222
-0.157945
-0.0565964
0.0505518
0.16335
0.271458
0.359432
0.425403
0.473887
0.50757
0.528561
0.538499
0.539721
0.539022
0.539305
-0.580554
-0.563169
-0.508711
-0.438735
-0.356633
-0.268151
-0.172026
-0.0696024
0.0390528
0.15371
0.263866
0.355469
0.426354
0.479749
0.518283
0.542879
0.553673
0.551123
0.545844
0.543419
-0.597988
-0.58031
-0.525379
-0.454623
-0.371856
-0.28271
-0.185857
-0.0825314
0.0272543
0.143269
0.255669
0.350901
0.425666
0.48452
0.529142
0.559612
0.575638
0.56773
0.561845
0.566707
-0.614748
-0.596781
-0.541407
-0.469983
-0.386617
-0.29686
-0.199371
-0.0953546
0.0152716
0.132565
0.246661
0.343632
0.422386
0.486952
0.538421
0.577077
0.6029
0.587509
0.54288
0.496759
-0.630771
-0.612583
-0.556812
-0.484865
-0.401029
-0.310782
-0.212823
-0.108343
0.00288044
0.120956
0.235975
0.33458
0.416259
0.485692
0.544691
0.59405
0.635191
0.649502
0.670445
0.720882
-0.646024
-0.627786
-0.571685
-0.499389
-0.415269
-0.324738
-0.226532
-0.121843
-0.0104421
0.107954
0.223553
0.322766
0.40597
0.478815
0.5407
0.591176
0.624745
0.631858
0.606775
0.614092
-0.660466
-0.642345
-0.585977
-0.513492
-0.429247
-0.338636
-0.240403
-0.135797
-0.0245428
0.0936982
0.209181
0.308032
0.390244
0.461972
0.52202
0.566984
0.57265
0.53478
0.480101
0.47178
-0.674133
-0.656275
-0.599701
-0.527172
-0.442945
-0.352456
-0.254414
-0.150111
-0.0393447
0.0781366
0.192783
0.290248
0.369104
0.434617
0.487312
0.505649
0.477044
0.409181
0.338766
0.327683
-0.687059
-0.669553
-0.61287
-0.540451
-0.456368
-0.366176
-0.268502
-0.164747
-0.0548208
0.0615202
0.174598
0.269245
0.341909
0.394273
0.422868
0.41424
0.367474
0.267998
0.181627
0.165139
-0.699702
-0.682611
-0.62589
-0.553697
-0.469853
-0.380069
-0.28291
-0.179911
-0.0710864
0.0434516
0.153895
0.244549
0.310068
0.347171
0.341125
0.306158
0.202204
0.0803329
-0.0269854
-0.0498541
-0.712936
-0.696194
-0.639435
-0.567522
-0.483964
-0.394599
-0.298009
-0.195889
-0.0884556
0.0238743
0.131079
0.216371
0.274007
0.289036
0.249424
0.163004
0.00413417
-0.149753
-0.277926
-0.302874
-0.727255
-0.710763
-0.653827
-0.582159
-0.498879
-0.409888
-0.313905
-0.212786
-0.106923
0.00280434
0.10569
0.185904
0.233585
0.220139
0.156659
0.00379509
-0.204898
-0.424406
-0.608279
-0.654522
-0.742713
-0.726321
-0.66909
-0.597615
-0.514579
-0.425929
-0.330561
-0.230491
-0.126352
-0.0196234
0.0780307
0.152542
0.185854
0.139084
0.040812
-0.160139
-0.407745
-0.713192
-1.0484
-1.19037
-0.759362
-0.743045
-0.685336
-0.613966
-0.531104
-0.442767
-0.348043
-0.249131
-0.146892
-0.0434149
0.0489329
0.116758
0.132427
0.0525224
-0.0979451
-0.32564
-0.582839
-0.953317
-1.57032
-2.15776
-0.77719
-0.760856
-0.702583
-0.63125
-0.548465
-0.460408
-0.366313
-0.268544
-0.168151
-0.0679035
0.0187881
0.0791672
0.0774857
-0.0283533
-0.235879
-0.499621
-0.730201
-0.999041
-1.6101
-3.23246
-0.796287
-0.77991
-0.720931
-0.649578
-0.566784
-0.478985
-0.385535
-0.288972
-0.190586
-0.0939052
-0.0132587
0.0379195
0.0182396
-0.0929466
-0.340919
-0.618322
-0.794453
-0.858906
-0.885642
-1.30011
-0.81654
-0.800128
-0.740511
-0.669215
-0.586409
-0.498944
-0.406284
-0.311144
-0.215038
-0.122259
-0.047415
-0.00626358
-0.0451264
-0.144357
-0.399146
-0.644579
-0.783102
-0.808426
-0.764063
-0.811977
-0.837957
-0.821479
-0.761345
-0.6902
-0.607352
-0.520324
-0.428584
-0.335033
-0.241505
-0.15311
-0.0833909
-0.0511201
-0.102812
-0.197552
-0.437451
-0.63914
-0.74602
-0.761553
-0.802325
-0.817608
-0.860362
-0.843581
-0.783374
-0.712509
-0.629558
-0.543098
-0.452442
-0.360711
-0.270145
-0.186422
-0.121606
-0.0987038
-0.156213
-0.258179
-0.474494
-0.638934
-0.730146
-0.697136
-0.723308
-0.725207
-0.88351
-0.86636
-0.806506
-0.735999
-0.652831
-0.567136
-0.477659
-0.387852
-0.300488
-0.221482
-0.160953
-0.148937
-0.206029
-0.329052
-0.514544
-0.64046
-0.711119
-0.734796
-0.721754
-0.729141
-0.906823
-0.889484
-0.830662
-0.760407
-0.676942
-0.592174
-0.503954
-0.416104
-0.332259
-0.258029
-0.201147
-0.202619
-0.250738
-0.39703
-0.561573
-0.65787
-0.670006
-0.732804
-0.698656
-0.709194
-0.929999
-0.912721
-0.85531
-0.785095
-0.701535
-0.617905
-0.530921
-0.445064
-0.364957
-0.295403
-0.241153
-0.255624
-0.305043
-0.459129
-0.593298
-0.681736
-0.654119
-0.70316
-0.687736
-0.690463
-0.952505
-0.935677
-0.879503
-0.8096
-0.726314
-0.643816
-0.557979
-0.47399
-0.397544
-0.332809
-0.279446
-0.302299
-0.369513
-0.513628
-0.60509
-0.67276
-0.693246
-0.680551
-0.692198
-0.689803
-0.973719
-0.957591
-0.902461
-0.832936
-0.750764
-0.669246
-0.584417
-0.502153
-0.428828
-0.369484
-0.316452
-0.344937
-0.443972
-0.592199
-0.620808
-0.603418
-0.682203
-0.663828
-0.69045
-0.693486
-0.992701
-0.977616
-0.923673
-0.854681
-0.774263
-0.693271
-0.609358
-0.528773
-0.457837
-0.404329
-0.35313
-0.378551
-0.519579
-0.69832
-0.70086
-0.579376
-0.623806
-0.648112
-0.678782
-0.689954
-1.00845
-0.994653
-0.942309
-0.874054
-0.795499
-0.714844
-0.63201
-0.552717
-0.483106
-0.435139
-0.387204
-0.401259
-0.595432
-0.842482
-0.942773
-0.922004
-0.928745
-0.918904
-0.908341
-0.896352
-1.0199
-1.00775
-0.957648
-0.890489
-0.813314
-0.733035
-0.65117
-0.572765
-0.502895
-0.458694
-0.419352
-0.419755
-0.652347
-1.00463
-1.40281
-1.6357
-1.69249
-1.64553
-1.56625
-1.49005
-1.0261
-1.01577
-0.968561
-0.90264
-0.826276
-0.746566
-0.665511
-0.587753
-0.516608
-0.469503
-0.443892
-0.427378
-0.666507
-1.05653
-1.60604
-1.97364
-2.04479
-1.95327
-1.85254
-1.77025
-1.0259
-1.01733
-0.97363
-0.909203
-0.833557
-0.754421
-0.673751
-0.595804
-0.521979
-0.46638
-0.442915
-0.418946
-0.591894
-0.841847
-1.16281
-1.34813
-1.32685
-1.24303
-1.10361
-1.02585
-1.01835
-1.01117
-0.971495
-0.90891
-0.834388
-0.755759
-0.674636
-0.594958
-0.517067
-0.450373
-0.413909
-0.346972
-0.367838
-0.274002
-0.167417
-0.0705701
0.0574925
0.16027
0.228582
0.281583
-1.00121
-0.994409
-0.960424
-0.900709
-0.827751
-0.749649
-0.667716
-0.585503
-0.502361
-0.417879
-0.357675
-0.231558
-0.0728327
0.259999
0.632875
0.925437
1.13916
1.27653
1.34333
1.36599
-0.970883
-0.964376
-0.938783
-0.884443
-0.813897
-0.736733
-0.654336
-0.568872
-0.481033
-0.37591
-0.282754
-0.147028
0.145241
0.556605
0.988616
1.34715
1.61157
1.76864
1.83703
1.85542
-0.927255
-0.922677
-0.907926
-0.860368
-0.793139
-0.717606
-0.635972
-0.548194
-0.456848
-0.343748
-0.226909
-0.117542
0.167771
0.530222
0.918868
1.25329
1.51143
1.6706
1.74356
1.76442
-0.882236
-0.881207
-0.873363
-0.83056
-0.767083
-0.693924
-0.615398
-0.52864
-0.43768
-0.335879
-0.218164
-0.141318
0.0531822
0.342973
0.654561
0.915972
1.12601
1.26313
1.33115
1.35536
-0.839374
-0.842106
-0.833034
-0.795778
-0.737092
-0.668553
-0.595048
-0.514461
-0.43066
-0.343614
-0.236096
-0.171798
-0.0572428
0.165542
0.409241
0.600404
0.751791
0.858796
0.910536
0.928239
-0.775845
-0.779517
-0.772429
-0.745596
-0.696469
-0.637556
-0.573231
-0.503958
-0.428105
-0.351548
-0.253721
-0.19007
-0.123917
0.0372299
0.228808
0.370433
0.476601
0.554669
0.588468
0.595259
-0.691722
-0.693582
-0.690283
-0.674155
-0.639888
-0.59684
-0.546695
-0.490868
-0.423051
-0.356103
-0.268023
-0.2013
-0.162923
-0.0567115
0.0909922
0.183488
0.256065
0.306008
0.327742
0.333701
-0.60679
-0.607721
-0.605718
-0.596704
-0.576868
-0.549375
-0.514662
-0.47407
-0.419115
-0.356264
-0.278286
-0.205357
-0.181835
-0.111457
-0.000916148
0.0465038
0.101202
0.13425
0.148993
0.154287
-0.536151
-0.536675
-0.535346
-0.530785
-0.521021
-0.505463
-0.483384
-0.456013
-0.41663
-0.358079
-0.287397
-0.220276
-0.181667
-0.153427
-0.073092
-0.0421643
-0.00683396
0.0186605
0.0311891
0.0360511
-0.491299
-0.491128
-0.490417
-0.488456
-0.483763
-0.475298
-0.461571
-0.441114
-0.409973
-0.370924
-0.305586
-0.241103
-0.193145
-0.191305
-0.144789
-0.113857
-0.0877598
-0.0689618
-0.0588906
-0.056845
-0.474235
-0.473832
-0.473364
-0.472562
-0.470661
-0.465683
-0.458523
-0.446053
-0.425502
-0.397867
-0.335276
-0.276592
-0.231724
-0.232844
-0.201658
-0.177155
-0.156355
-0.146103
-0.142088
-0.142436
-0.479689
-0.479294
-0.47907
-0.479172
-0.478916
-0.477227
-0.476208
-0.472993
-0.470067
-0.45541
-0.405207
-0.342743
-0.30048
-0.283373
-0.256566
-0.236442
-0.216563
-0.20852
-0.207941
-0.209877
-0.499878
-0.499597
-0.499943
-0.501132
-0.503046
-0.505965
-0.513001
-0.523842
-0.545133
-0.554751
-0.535005
-0.454395
-0.386143
-0.351696
-0.319576
-0.29051
-0.26534
-0.247334
-0.240268
-0.245907
-0.525019
-0.525331
-0.52659
-0.529341
-0.534566
-0.544258
-0.562963
-0.59534
-0.648989
-0.707667
-0.730765
-0.628129
-0.516454
-0.446018
-0.386887
-0.342438
-0.301402
-0.277329
-0.266721
-0.273834
-0.544187
-0.545171
-0.547756
-0.552533
-0.56173
-0.579542
-0.613065
-0.673195
-0.772395
-0.899166
-0.962493
-0.856367
-0.720114
-0.612547
-0.502172
-0.408491
-0.344144
-0.322554
-0.320628
-0.325914
-0.54562
-0.547087
-0.550346
-0.557792
-0.570449
-0.595249
-0.642377
-0.727687
-0.875669
-1.08249
-1.19116
-1.07828
-0.899295
-0.754149
-0.614949
-0.517349
-0.473024
-0.442121
-0.439488
-0.439572
-0.520032
-0.522287
-0.525073
-0.532296
-0.548279
-0.576352
-0.628441
-0.723092
-0.888743
-1.13595
-1.292
-1.16838
-0.971255
-0.794457
-0.670797
-0.602266
-0.563894
-0.557345
-0.551271
-0.548206
-0.467071
-0.46909
-0.472256
-0.477863
-0.491225
-0.51812
-0.567775
-0.658504
-0.814636
-1.03452
-1.16578
-1.05057
-0.860867
-0.730591
-0.657812
-0.612669
-0.58693
-0.591665
-0.589639
-0.58737
-0.389456
-0.390936
-0.393576
-0.39835
-0.4082
-0.428727
-0.467667
-0.539659
-0.661451
-0.822639
-0.910273
-0.805048
-0.66688
-0.621381
-0.597742
-0.570734
-0.57475
-0.575583
-0.574065
-0.5717
-0.298699
-0.299575
-0.301026
-0.303774
-0.309827
-0.322875
-0.347977
-0.395015
-0.47369
-0.574343
-0.631198
-0.538616
-0.48743
-0.489795
-0.494101
-0.507546
-0.514076
-0.513858
-0.510978
-0.508603
-0.208571
-0.208931
-0.209424
-0.210234
-0.212674
-0.218791
-0.23094
-0.254452
-0.293274
-0.345922
-0.368236
-0.316949
-0.335659
-0.356595
-0.383423
-0.411417
-0.414052
-0.414823
-0.414784
-0.414295
-0.130159
-0.13011
-0.130028
-0.129606
-0.129568
-0.13073
-0.133451
-0.139539
-0.147628
-0.150433
-0.15287
-0.180495
-0.214012
-0.248938
-0.285703
-0.307253
-0.310508
-0.313803
-0.315773
-0.315693
-0.0694823
-0.0691805
-0.0688698
-0.0679793
-0.0668326
-0.0655247
-0.0634482
-0.0607022
-0.0552706
-0.0374824
-0.0383111
-0.0841128
-0.127747
-0.164021
-0.204642
-0.218409
-0.223253
-0.227085
-0.228016
-0.228239
-0.0275357
-0.0271613
-0.0268508
-0.0260404
-0.0247863
-0.0229208
-0.0195709
-0.0144832
-0.00676768
0.00683513
0.00876057
-0.0364252
-0.0772666
-0.108932
-0.133675
-0.145065
-0.151916
-0.154726
-0.155881
-0.156384
-0.00169689
-0.00135838
-0.00113886
-0.000686304
0.000223325
0.00163076
0.00445059
0.00883531
0.0150877
0.0227732
0.0213707
-0.0141364
-0.0460879
-0.0695857
-0.0875601
-0.0948089
-0.0987154
-0.101174
-0.102418
-0.102991
0.0117649
0.0120244
0.0121363
0.0121735
0.012606
0.0133617
0.0151049
0.0179501
0.021957
0.0255665
0.0224338
-0.00302745
-0.0266476
-0.0432393
-0.0555419
-0.0617827
-0.0643768
-0.0656186
-0.0663648
-0.0667252
0.0165156
0.0166988
0.0167358
0.0165228
0.0165428
0.0167352
0.0174964
0.0189015
0.0209027
0.0219779
0.0184379
0.00135563
-0.0150023
-0.0262462
-0.0342598
-0.0383283
-0.0403551
-0.0411931
-0.0417372
-0.0419896
0.0154536
0.0155707
0.0155673
0.0152815
0.0150936
0.0149784
0.0151543
0.0156485
0.0163775
0.0161822
0.012998
0.00219957
-0.00825071
-0.0151835
-0.0201491
-0.0225369
-0.0238369
-0.0244099
-0.0248202
-0.0249878
0.0107906
0.0108663
0.0108654
0.0106181
0.0103914
0.0101967
0.0101158
0.0101911
0.0103063
0.009786
0.00767596
0.00173437
-0.00402141
-0.00771732
-0.0105149
-0.0120351
-0.0127979
-0.0130268
-0.0131362
-0.0131609
0.00399409
0.00403024
0.00405198
0.00391484
0.0037943
0.00369386
0.00360679
0.00363946
0.00360592
0.00337904
0.00263241
0.000625255
-0.00137158
-0.0027223
-0.00411508
-0.00469803
-0.00466613
-0.00426647
-0.00394295
-0.00403127
-1.54067
-0.651449
-0.377495
-0.0870793
0.109444
0.279782
0.423324
0.569067
0.7243
0.801096
-0.518123
-0.0882246
-0.0590237
0.137989
0.275537
0.398417
0.505438
0.59944
0.631264
0.586575
-0.110013
0.117007
0.162448
0.303668
0.399131
0.486522
0.558697
0.612406
0.617269
0.629187
0.136673
0.291344
0.32817
0.438905
0.498914
0.562044
0.610272
0.644345
0.654645
0.677581
0.328963
0.435191
0.465113
0.540994
0.585604
0.630526
0.664673
0.689889
0.700548
0.731454
0.476858
0.55072
0.581262
0.628524
0.665802
0.6978
0.723406
0.744549
0.759395
0.787197
0.60073
0.653869
0.680294
0.710281
0.739404
0.764195
0.784937
0.804518
0.819787
0.846003
0.707217
0.746047
0.767768
0.789362
0.811216
0.83132
0.849103
0.867518
0.88251
0.906091
0.803354
0.832635
0.850081
0.865958
0.882738
0.899222
0.915002
0.932181
0.945777
0.968079
0.892722
0.913742
0.92904
0.942565
0.95647
0.970503
0.984098
0.998767
1.0103
1.02997
0.979308
0.995242
1.00928
1.02133
1.03343
1.04514
1.05631
1.06802
1.07568
1.09249
1.06499
1.07797
1.0918
1.1035
1.1141
1.12386
1.13264
1.14089
1.14446
1.15575
1.15444
1.16543
1.17892
1.18813
1.19556
1.20274
1.20995
1.21655
1.21755
1.22498
1.25292
1.25766
1.26569
1.27018
1.27345
1.27792
1.28392
1.2917
1.29552
1.30541
1.36625
1.35254
1.34509
1.33944
1.33676
1.33816
1.34469
1.35711
1.37184
1.40149
1.48708
1.4314
1.40053
1.38346
1.37533
1.37534
1.38399
1.40345
1.43551
1.50467
)
;

boundaryField
{
    wall-4
    {
        type            zeroGradient;
    }
    pressure-outlet-7
    {
        type            fixedValue;
        value           uniform 0;
    }
    velocity-inlet-6
    {
        type            zeroGradient;
    }
    velocity-inlet-5
    {
        type            zeroGradient;
    }
    frontAndBackPlanes
    {
        type            empty;
    }
}


// ************************************************************************* //
