/*--------------------------------*- C++ -*----------------------------------*\
| =========                 |                                                 |
| \\      /  F ield         | OpenFOAM: The Open Source CFD Toolbox           |
|  \\    /   O peration     | Version:  v2012                                 |
|   \\  /    A nd           | Website:  www.openfoam.com                      |
|    \\/     M anipulation  |                                                 |
\*---------------------------------------------------------------------------*/
FoamFile
{
    version     2.0;
    format      ascii;
    class       surfaceScalarField;
    location    "23";
    object      phi;
}
// * * * * * * * * * * * * * * * * * * * * * * * * * * * * * * * * * * * * * //

dimensions      [0 3 -1 0 0 0 0];
oriented        oriented;


internalField   nonuniform List<scalar> 
4262
(
0.107144
0.470844
0.0955695
0.70516
0.0693733
0.858499
0.0473141
1.02082
0.0308102
1.21502
0.0195252
1.4495
0.0122134
1.73318
0.00723294
2.07602
0.00345663
2.48902
-0.000275108
2.98602
-0.00399185
2.98601
-0.00772814
2.48898
-0.0126576
2.07597
-0.0198715
1.73308
-0.0310553
1.4494
-0.0475031
1.21496
-0.0694956
1.02076
-0.0956298
0.858437
-0.107198
0.705154
0.470791
0.112838
0.358007
0.135258
0.68274
0.12046
0.873297
0.0980519
1.04323
0.0749757
1.2381
0.0533467
1.47113
0.0348712
1.75165
0.0204191
2.09047
0.00901797
2.50042
-0.000734786
2.99578
-0.0104884
2.99576
-0.0216815
2.50017
-0.0359564
2.09024
-0.0543396
1.75146
-0.0759262
1.47099
-0.0989321
1.23797
-0.121263
1.04309
-0.135812
0.872987
-0.113109
0.68245
0.357682
0.09192
0.266087
0.124747
0.649913
0.120862
0.877182
0.104693
1.0594
0.0864457
1.25634
0.0675338
1.49005
0.0485442
1.77064
0.0304267
2.10859
0.0140323
2.51682
-0.00146904
3.01128
-0.0168792
3.01117
-0.0330737
2.51637
-0.0509648
2.10813
-0.0696305
1.77013
-0.0880645
1.48942
-0.105819
1.25572
-0.121544
1.05881
-0.125363
0.876806
-0.0922287
0.649316
0.265453
0.0637158
0.202371
0.104309
0.60932
0.105807
0.875684
0.0940959
1.07111
0.0798286
1.27061
0.0653794
1.50449
0.04962
1.7864
0.0330756
2.12513
0.0160765
2.53381
-0.00205735
3.02941
-0.0200651
3.02918
-0.0368081
2.53311
-0.0528219
2.12415
-0.0679746
1.78528
-0.0820018
1.50345
-0.0959865
1.26971
-0.107438
1.07026
-0.105386
0.874754
-0.064161
0.60809
0.201292
0.0371792
0.165192
0.0802082
0.566291
0.090436
0.865456
0.0830057
1.07854
0.0700802
1.28354
0.0579955
1.51658
0.0455372
1.79886
0.0313443
2.13932
0.015394
2.54976
-0.00279626
3.0476
-0.0207127
3.0471
-0.0361011
2.5485
-0.0496791
2.13772
-0.0616618
1.79726
-0.0732815
1.51507
-0.0857392
1.28217
-0.0926139
1.07714
-0.0816647
0.863805
-0.0377069
0.564132
0.163585
0.0191556
0.146036
0.056175
0.529272
0.0714519
0.850179
0.0696721
1.08032
0.0611012
1.29211
0.0502302
1.52745
0.0391473
1.80994
0.0274514
2.15102
0.0134099
2.56381
-0.00373303
3.06475
-0.0204962
3.06386
-0.0337581
2.56176
-0.0446259
2.14859
-0.0549323
1.80757
-0.0650763
1.52521
-0.0729114
1.29
-0.0739381
1.07817
-0.0577144
0.847581
-0.019674
0.526092
0.143911
0.0100372
0.135999
0.0401765
0.499133
0.0555445
0.834811
0.056332
1.07953
0.0510905
1.29735
0.0424943
1.53605
0.0328454
1.81959
0.0221151
2.16175
0.00987718
2.57604
-0.00467827
3.0793
-0.0189332
3.07812
-0.0305571
2.57338
-0.0404002
2.15843
-0.0487926
1.81596
-0.056399
1.53282
-0.0606545
1.29426
-0.0588395
1.07635
-0.0421668
0.830908
-0.0106609
0.494586
0.13325
0.00578911
0.13021
0.0306282
0.474293
0.045708
0.819731
0.047248
1.07799
0.0431372
1.30146
0.0361172
1.54307
0.0276352
1.82807
0.0175561
2.17183
0.00627045
2.58733
-0.0059781
3.09155
-0.0177643
3.0899
-0.0279588
2.58358
-0.0364071
2.16688
-0.0437342
1.82329
-0.0496704
1.53876
-0.0525676
1.29716
-0.0497524
1.07353
-0.0330783
0.814234
-0.00656676
0.468074
0.126683
0.00382238
0.126388
0.0238128
0.454303
0.0383708
0.805173
0.0403291
1.07604
0.0365703
1.30522
0.0303878
1.54925
0.0226887
1.83577
0.0136038
2.18091
0.00361069
2.59732
-0.00713531
3.1023
-0.0173188
3.10008
-0.0260818
2.59234
-0.0340161
2.17482
-0.0401211
1.82939
-0.0446163
1.54325
-0.046951
1.29949
-0.043372
1.06996
-0.0267153
0.797578
-0.00476596
0.446125
0.121917
0.00218396
0.124204
0.0158587
0.440628
0.028623
0.792409
0.031232
1.07343
0.0282036
1.30825
0.0231123
1.55434
0.0169291
1.84195
0.00939497
2.18845
0.000549674
2.60617
-0.00943268
3.11228
-0.0187515
3.1094
-0.0257373
2.59933
-0.0312901
2.18037
-0.0352524
1.83336
-0.0384023
1.5464
-0.0394899
1.30058
-0.0347425
1.06521
-0.0193748
0.78221
-0.00335298
0.430103
0.118564
0.000576378
0.123627
0.00805079
0.433154
0.0178027
0.782657
0.020412
1.07082
0.0181443
1.31051
0.0141341
1.55835
0.00948442
1.8466
0.00394649
2.19399
-0.00291054
2.61303
-0.0114949
3.12086
-0.0191233
3.11703
-0.0238664
2.60407
-0.0265155
2.18302
-0.0291838
1.83602
-0.03117
1.54839
-0.0308532
1.30026
-0.0251893
1.05954
-0.0122895
0.76931
-0.00209027
0.419904
0.116474
-0.000185682
0.123813
0.00296468
0.430004
0.00961388
0.776008
0.0121137
1.06832
0.0104041
1.31222
0.00686018
1.56189
0.00250181
1.85096
-0.00236762
2.19886
-0.00802263
2.61868
-0.014466
3.12731
-0.0197136
3.12228
-0.0227933
2.60715
-0.0246192
2.18484
-0.0255439
1.83695
-0.0253655
1.54821
-0.0239223
1.29882
-0.018211
1.05383
-0.00796518
0.759064
-0.0014713
0.41341
0.115003
-0.000672913
0.124486
-0.000175727
0.429506
0.00384632
0.771986
0.00559747
1.06657
0.00442825
1.31339
0.00186047
1.56446
-0.00186066
1.85468
-0.00664755
2.20364
-0.0122197
2.62425
-0.018025
3.13311
-0.0223994
3.12665
-0.0249306
2.60968
-0.0258857
2.1858
-0.0251304
1.83619
-0.0238521
1.54693
-0.0213427
1.29631
-0.015374
1.04786
-0.00665435
0.750345
-0.00156424
0.40832
0.113439
-0.00131618
0.125802
-0.00225652
0.430447
-0.000274727
0.770004
0.000893486
1.0654
-8.72451e-05
1.31437
-0.00241512
1.56679
-0.00614902
1.85842
-0.0110074
2.2085
-0.0167757
2.63002
-0.0227453
3.13908
-0.0269004
3.13081
-0.0283341
2.61112
-0.0279052
2.18537
-0.0261297
1.83442
-0.0236601
1.54446
-0.0196056
1.29225
-0.0133334
1.04159
-0.00584509
0.742856
-0.00155639
0.404031
0.111882
-0.0020078
0.12781
-0.00440648
0.432845
-0.00474903
0.770347
-0.00434123
1.06499
-0.00503156
1.31506
-0.00698462
1.56874
-0.0103957
1.86183
-0.0153646
2.21347
-0.0215232
2.63618
-0.0278344
3.14539
-0.0319581
3.13493
-0.032964
2.61212
-0.0317003
2.18411
-0.02917
1.83189
-0.0253456
1.54064
-0.0199269
1.28683
-0.0128463
1.03451
-0.00566621
0.735676
-0.00157205
0.399937
0.11031
-0.00242381
0.130234
-0.00646353
0.436885
-0.00817874
0.772062
-0.00796369
1.06477
-0.00867543
1.31578
-0.0112659
1.57133
-0.015672
1.86623
-0.02162
2.21942
-0.0285436
2.6431
-0.0351988
3.15205
-0.0391198
3.13885
-0.0397967
2.6128
-0.0378153
2.18213
-0.0340134
1.82809
-0.0282295
1.53485
-0.0211239
1.27973
-0.0131306
1.02652
-0.00611183
0.728657
-0.0018343
0.39566
0.108476
-0.00307213
0.133306
-0.00843592
0.442249
-0.0116488
0.775275
-0.0124718
1.0656
-0.0132613
1.31657
-0.016001
1.57407
-0.0212019
1.87144
-0.0283449
2.22656
-0.0364451
2.6512
-0.0437198
3.15932
-0.0474093
3.14254
-0.0474726
2.61286
-0.0446441
2.1793
-0.0399635
1.8234
-0.033112
1.528
-0.0249001
1.27152
-0.0158679
1.01749
-0.0079244
0.720714
-0.00248596
0.390221
0.10599
-0.00354689
0.136853
-0.00989178
0.448594
-0.0145712
0.779954
-0.0166674
1.06769
-0.018649
1.31855
-0.022758
1.57818
-0.0294441
1.87812
-0.0380578
2.23517
-0.0473916
2.66054
-0.0552932
3.16722
-0.058722
3.14597
-0.0579078
2.61205
-0.0539211
2.17531
-0.0475126
1.817
-0.0386604
1.51915
-0.0283736
1.26123
-0.018094
1.00721
-0.00950769
0.712128
-0.0031078
0.383821
0.102882
-0.00485546
0.141708
-0.0136179
0.457356
-0.020775
0.787111
-0.0246266
1.07155
-0.0277045
1.32162
-0.0329259
1.5834
-0.0408695
1.88607
-0.050613
2.24492
-0.0606196
2.67054
-0.0684167
3.17502
-0.070703
3.14826
-0.0679442
2.60929
-0.0619215
2.16929
-0.0535612
1.80864
-0.0436407
1.50923
-0.032796
1.25039
-0.0218084
0.996219
-0.0118092
0.702128
-0.00383951
0.375852
0.0990426
-0.00587209
0.14758
-0.0163706
0.467855
-0.0257677
0.796508
-0.0323935
1.07817
-0.0386305
1.32786
-0.046532
1.59131
-0.0564213
1.89595
-0.0675906
2.25609
-0.078237
2.68119
-0.0853899
3.18217
-0.0858063
3.14867
-0.0807581
2.60424
-0.0725893
2.16112
-0.062131
1.79818
-0.0500139
1.49711
-0.0371522
1.23752
-0.0247252
0.983792
-0.0136643
0.691068
-0.00449491
0.366682
0.0945477
-0.00815997
0.15574
-0.0228461
0.482541
-0.0359638
0.809626
-0.0454475
1.08766
-0.0538251
1.33624
-0.0639727
1.60145
-0.0761319
1.90811
-0.0888689
2.26882
-0.0998528
2.69217
-0.105762
3.18808
-0.103575
3.14649
-0.0953684
2.59603
-0.0839051
2.14966
-0.0707446
1.78502
-0.0571781
1.48355
-0.0437457
1.22409
-0.0303782
0.970425
-0.0170495
0.677739
-0.00550736
0.35514
0.0890403
-0.0102046
0.165945
-0.028262
0.500598
-0.0453228
0.826687
-0.0590251
1.10136
-0.0721326
1.34935
-0.0864987
1.61582
-0.101668
1.92328
-0.116139
2.28329
-0.127264
2.7033
-0.131252
3.19207
-0.125445
3.14068
-0.113587
2.58418
-0.0992074
2.13528
-0.0836999
1.76951
-0.0677998
1.46765
-0.0518784
1.20817
-0.0358714
0.954418
-0.0201459
0.662013
-0.00653456
0.341529
0.0825058
-0.0150071
0.180952
-0.0395506
0.525142
-0.0613699
0.848506
-0.0793596
1.11935
-0.0966254
1.36661
-0.114828
1.63402
-0.133025
1.94148
-0.149153
2.29942
-0.159851
2.714
-0.161241
3.19346
-0.15164
3.13108
-0.135873
2.56841
-0.117342
2.11674
-0.0981641
1.75033
-0.0796052
1.44909
-0.0618302
1.1904
-0.0438657
0.936453
-0.0248817
0.643029
-0.00784435
0.324492
0.0746614
-0.0192389
0.200191
-0.051107
0.55701
-0.0810662
0.878465
-0.105624
1.1439
-0.129221
1.39021
-0.15262
1.65742
-0.174321
1.96318
-0.191504
2.31661
-0.201012
2.72351
-0.198841
3.19129
-0.183881
3.11612
-0.162921
2.54745
-0.140398
2.09422
-0.118175
1.72811
-0.0968236
1.42774
-0.0757004
1.16927
-0.053125
0.913878
-0.0293561
0.61926
-0.00898613
0.304122
0.0656753
-0.0335158
0.233707
-0.0770443
0.600538
-0.114412
0.915833
-0.145091
1.17458
-0.175174
1.42029
-0.202875
1.68512
-0.226312
1.98662
-0.242864
2.33316
-0.249349
2.72999
-0.241741
3.18368
-0.220825
3.0952
-0.195141
2.52176
-0.168063
2.06714
-0.141471
1.70152
-0.116062
1.40233
-0.091038
1.14425
-0.0646789
0.887519
-0.0363215
0.590903
-0.0107588
0.278559
0.0549165
-0.0468575
0.280564
-0.113125
0.666805
-0.164869
0.967577
-0.204196
1.21391
-0.240335
1.45643
-0.269746
1.71453
-0.292481
2.00935
-0.305975
2.34665
-0.307215
2.73123
-0.292707
3.16917
-0.26493
3.06743
-0.232968
2.4898
-0.200843
2.03502
-0.170487
1.67116
-0.142041
1.37388
-0.113358
1.11557
-0.0804643
0.854625
-0.0420664
0.552505
-0.0109618
0.247454
0.0439547
-0.0313564
0.31192
-0.086761
0.72221
-0.13601
1.01683
-0.18013
1.25803
-0.221572
1.49787
-0.259841
1.7528
-0.294633
2.04414
-0.323166
2.37519
-0.341286
2.74935
-0.341982
3.16987
-0.321596
3.04704
-0.28975
2.45796
-0.251642
1.99691
-0.21024
1.62976
-0.167528
1.33117
-0.123436
1.07147
-0.0767398
0.807929
-0.0337861
0.509551
-0.00726973
0.220938
0.036685
-0.00872958
0.32065
-0.0367023
0.750183
-0.0735854
1.05371
-0.111133
1.29558
-0.147963
1.5347
-0.18284
1.78768
-0.214166
2.07547
-0.239063
2.40008
-0.253007
2.76329
-0.249614
3.16648
-0.227336
3.02476
-0.193691
2.42431
-0.154763
1.95798
-0.11506
1.59006
-0.076342
1.29245
-0.0404079
1.03554
-0.0116313
0.779152
0.00395382
0.493966
0.00438796
0.220504
0.041073
0.00367411
0.316976
-0.0154869
0.769344
-0.0426056
1.08083
-0.0724107
1.32538
-0.102665
1.56496
-0.132484
1.8175
-0.159789
2.10277
-0.181455
2.42175
-0.193269
2.77511
-0.189861
3.16307
-0.167724
3.00263
-0.13541
2.392
-0.100192
1.92277
-0.0654674
1.55533
-0.0333634
1.26035
-0.00643643
1.00861
0.0123855
0.76033
0.0160093
0.490342
0.00757526
0.228938
0.0486482
0.00383591
0.31314
-0.00630426
0.779484
-0.0265004
1.10102
-0.0509545
1.34984
-0.0758856
1.58989
-0.101118
1.84273
-0.124704
2.12636
-0.143584
2.44063
-0.153654
2.78518
-0.1487
3.15811
-0.127897
2.98182
-0.101353
2.36545
-0.0727906
1.8942
-0.0446967
1.52724
-0.0189994
1.23465
0.00258812
0.987025
0.0157242
0.747194
0.0163951
0.489672
0.00667905
0.238654
0.0553273
0.00620695
0.306933
-0.00068977
0.786381
-0.0184463
1.11878
-0.0390688
1.37046
-0.0603016
1.61112
-0.082204
1.86463
-0.102847
2.147
-0.119525
2.45731
-0.128607
2.79426
-0.125333
3.15484
-0.109068
2.96556
-0.0857305
2.34212
-0.0603023
1.86877
-0.0357995
1.50273
-0.0136094
1.21246
0.00419921
0.969217
0.0134935
0.7379
0.0121805
0.490985
0.00444939
0.246385
0.0597767
0.00615742
0.300776
0.00116792
0.79137
-0.0143528
1.1343
-0.0327048
1.38881
-0.0516561
1.63007
-0.0711141
1.88409
-0.0896101
2.1655
-0.104914
2.47261
-0.113659
2.803
-0.111317
3.1525
-0.0957655
2.95001
-0.0747887
2.32114
-0.0534462
1.84743
-0.0329256
1.48221
-0.0150405
1.19457
-0.00113247
0.955309
0.0067125
0.730055
0.00677632
0.490921
0.00239667
0.250765
0.0621733
0.00422769
0.296548
0.000818521
0.794779
-0.0126289
1.14775
-0.0293707
1.40555
-0.0470713
1.64777
-0.0650094
1.90203
-0.0822224
2.18271
-0.0969976
2.48739
-0.106307
2.81231
-0.105644
3.15183
-0.0933407
2.9377
-0.0757512
2.30355
-0.0564678
1.82815
-0.038106
1.46385
-0.0216888
1.17816
-0.00898344
0.942603
-0.00232896
0.723401
-0.000130729
0.488722
0.000107907
0.250526
0.0622812
0.00274487
0.293803
-8.163e-05
0.797606
-0.0121556
1.15982
-0.02786
1.42126
-0.0447632
1.66468
-0.0618547
1.91912
-0.0784092
2.19927
-0.0929417
2.50192
-0.102393
2.82177
-0.102135
3.15158
-0.0907607
2.92633
-0.0739085
2.2867
-0.0560277
1.81027
-0.0386849
1.44651
-0.0249864
1.16446
-0.0148046
0.932422
-0.00801307
0.716609
-0.00517966
0.485889
-0.00163192
0.246978
0.0606493
6.59953e-05
0.293737
-0.00267726
0.800349
-0.0132692
1.17041
-0.0277834
1.43577
-0.0437959
1.68069
-0.0603814
1.93571
-0.0766906
2.21558
-0.0913552
2.51658
-0.101843
2.83225
-0.104305
3.15404
-0.0951411
2.91717
-0.0794105
2.27097
-0.0629575
1.79382
-0.0494034
1.43295
-0.03544
1.15049
-0.0238437
0.920825
-0.0150571
0.707822
-0.00771414
0.478546
-0.00239054
0.241655
0.0582588
-0.000456021
0.294193
-0.00507242
0.804965
-0.0149647
1.18031
-0.0283252
1.44913
-0.0434824
1.69585
-0.0596553
1.95188
-0.0759826
2.2319
-0.0910949
2.5317
-0.102572
2.84373
-0.10606
3.15753
-0.0975763
2.90868
-0.084108
2.2575
-0.0688683
1.77858
-0.051823
1.41591
-0.0377315
1.1364
-0.0259475
0.909041
-0.0164816
0.698357
-0.00947116
0.471536
-0.00301175
0.235195
0.055247
-0.00251571
0.296709
-0.00766536
0.810115
-0.0170635
1.1897
-0.0292655
1.46134
-0.0435855
1.71017
-0.0593526
1.96765
-0.0757993
2.24835
-0.0916055
2.5475
-0.104524
2.85665
-0.110769
3.16377
-0.106197
2.90411
-0.0922841
2.24359
-0.0745492
1.76084
-0.0592798
1.40064
-0.0457476
1.12287
-0.0339287
0.897222
-0.0226189
0.687047
-0.0111581
0.460075
-0.00345717
0.227494
0.0517899
-0.00392519
0.300634
-0.0092357
0.815426
-0.0183786
1.19885
-0.0301549
1.47311
-0.0438497
1.72386
-0.0591944
1.98299
-0.0757242
2.26488
-0.0922031
2.56398
-0.10658
2.87103
-0.115198
3.17239
-0.111912
2.90082
-0.100015
2.23169
-0.0848728
1.7457
-0.0675064
1.38327
-0.050897
1.10626
-0.0354421
0.881767
-0.0229384
0.674543
-0.0127066
0.449843
-0.00389536
0.218683
0.0478945
-0.00444079
0.305075
-0.0105189
0.821504
-0.0194849
1.20781
-0.0308676
1.48449
-0.0441093
1.7371
-0.0591225
1.998
-0.0756772
2.28143
-0.0928459
2.58115
-0.108904
2.88708
-0.120061
3.18355
-0.119733
2.9005
-0.109342
2.2213
-0.0911062
1.72746
-0.0731825
1.36535
-0.056831
1.08991
-0.0438056
0.868742
-0.0300017
0.660739
-0.0147248
0.434566
-0.00436193
0.20832
0.0435326
-0.00440815
0.309483
-0.0109161
0.828012
-0.0199479
1.21685
-0.0311564
1.4957
-0.0441509
1.7501
-0.058898
2.01275
-0.0754419
2.29798
-0.0931363
2.59884
-0.110336
2.90428
-0.123543
3.19675
-0.126176
2.90313
-0.117103
2.21222
-0.101976
1.71234
-0.0814983
1.34487
-0.0623292
1.07074
-0.0437548
0.850168
-0.0277975
0.644782
-0.0150348
0.421803
-0.00431631
0.197602
0.0392163
-0.00439171
0.313875
-0.0113362
0.834956
-0.0202138
1.22572
-0.0311243
1.50661
-0.0438728
1.76285
-0.0584286
2.02731
-0.0749919
2.31454
-0.0931609
2.61701
-0.111948
2.92307
-0.129053
3.21386
-0.13564
2.90972
-0.127586
2.20417
-0.109627
1.69438
-0.0895822
1.32483
-0.0684909
1.04965
-0.0511133
0.83279
-0.0347338
0.628402
-0.0166794
0.403749
-0.00418463
0.185107
0.0350316
-0.00434992
0.318225
-0.0112888
0.841895
-0.0200202
1.23445
-0.030706
1.5173
-0.0432349
1.77538
-0.0575888
2.04166
-0.0740865
2.33104
-0.0925471
2.63547
-0.112091
2.94261
-0.129366
3.23113
-0.137038
2.91739
-0.134056
2.20119
-0.122466
1.68279
-0.100344
1.30271
-0.0749551
1.02426
-0.0480556
0.805891
-0.0271114
0.607458
-0.0133125
0.38995
-0.00319066
0.174985
0.031841
-0.00437335
0.322598
-0.0113594
0.848881
-0.0197642
1.24286
-0.0300629
1.5276
-0.0422496
1.78756
-0.0563644
2.05577
-0.0727919
2.34747
-0.0915234
2.65421
-0.112255
2.96335
-0.133776
3.25265
-0.148533
2.93215
-0.147012
2.19967
-0.130713
1.66649
-0.108753
1.28074
-0.0804902
0.995998
-0.0541108
0.779511
-0.029517
0.582864
-0.0106623
0.371095
-0.00263426
0.166957
0.0292067
-0.00428495
0.326883
-0.0110629
0.855659
-0.019218
1.25101
-0.0291869
1.53757
-0.0410077
1.79938
-0.054817
2.06958
-0.0711099
2.36376
-0.0900642
2.67316
-0.111618
2.9849
-0.133446
3.27448
-0.147896
2.9466
-0.152087
2.20386
-0.145143
1.65954
-0.122468
1.25807
-0.0909623
0.964492
-0.0486276
0.737176
-0.00682598
0.541063
0.0169912
0.347278
0.0196692
0.164279
0.0488759
-0.00415873
0.331042
-0.0108433
0.862344
-0.0186548
1.25883
-0.0281845
1.5471
-0.0395461
1.81075
-0.0529956
2.08303
-0.0690692
2.37983
-0.0880327
2.69212
-0.109937
3.0068
-0.133994
3.29854
-0.153851
2.96645
-0.161728
2.21173
-0.153202
1.65102
-0.133748
1.23862
-0.0997124
0.930457
-0.0575813
0.695045
-0.00332466
0.486806
0.0292528
0.314701
0.0140909
0.179441
0.0629668
-0.00392468
0.334966
-0.0103291
0.868748
-0.0178663
1.26636
-0.0270231
1.55625
-0.0379971
1.82172
-0.0510457
2.09608
-0.0668422
2.39563
-0.0857924
2.71107
-0.108393
3.0294
-0.134347
3.32449
-0.155192
2.9873
-0.165428
2.22197
-0.16765
1.65324
-0.152534
1.2235
-0.120424
0.898347
-0.0589486
0.63357
0.0393254
0.388532
0.146576
0.20745
0.166061
0.159956
0.229027
-0.00375242
0.338719
-0.0101122
0.875108
-0.0175215
1.27377
-0.0265799
1.56531
-0.0376337
1.83277
-0.0510357
2.10948
-0.0676105
2.4122
-0.087967
2.73143
-0.112939
3.05438
-0.142352
3.35391
-0.169559
3.0145
-0.189919
2.24233
-0.193281
1.6566
-0.182056
1.21228
-0.152396
0.868688
-0.117357
0.598531
-0.137223
0.408398
-0.368277
0.438504
-0.918239
0.709918
0.890388
-1.5796
-0.00352793
0.342247
-0.00960032
0.88118
-0.0168216
1.28099
-0.025711
1.5742
-0.0366257
1.84369
-0.050033
2.12289
-0.0668934
2.42907
-0.0881191
2.75266
-0.115031
3.08129
-0.149092
3.38797
-0.182619
3.04803
-0.20507
2.26478
-0.227471
1.679
-0.236647
1.22145
-0.238376
0.870417
-0.315502
0.675657
-0.685175
0.77807
-1.39389
1.14722
-2.01026
1.32629
1.22185
-2.34172
-0.00334303
0.34559
-0.0091729
0.88701
-0.0161149
1.28794
-0.0247331
1.58282
-0.0354481
1.8544
-0.0488411
2.13628
-0.0659512
2.44618
-0.087832
2.77454
-0.116172
3.10963
-0.152494
3.42429
-0.18999
3.08553
-0.226984
2.30178
-0.253516
1.70553
-0.266708
1.23464
-0.354962
0.958671
-0.740207
1.0609
-1.49316
1.53102
-2.08153
1.73559
-2.32812
1.57288
1.33949
-2.44576
-0.00308226
0.348672
-0.00852595
0.892454
-0.0152035
1.29461
-0.0235946
1.59121
-0.0341124
1.86492
-0.0474419
2.14961
-0.0646848
2.46342
-0.0872237
2.79708
-0.117319
3.13972
-0.157907
3.46488
-0.204401
3.13202
-0.242342
2.33972
-0.286923
1.75012
-0.381346
1.32907
-0.696506
1.27383
-1.40157
1.76597
-2.00368
2.13313
-2.24977
1.98167
-2.36679
1.6899
1.40692
-2.43421
-0.00283061
0.351502
-0.00794595
0.897569
-0.0142728
1.30094
-0.0223252
1.59926
-0.0326324
1.87523
-0.0458622
2.16284
-0.0632458
2.4808
-0.0863473
2.82018
-0.117626
3.171
-0.161151
3.5084
-0.211819
3.18269
-0.266601
2.3945
-0.323864
1.80738
-0.494666
1.49987
-1.05922
1.83838
-1.75144
2.45819
-2.09063
2.47232
-2.24616
2.13721
-2.33179
1.77553
1.47388
-2.39875
-0.00268495
0.354187
-0.00759689
0.902481
-0.0139006
1.30724
-0.0219965
1.60736
-0.0325138
1.88574
-0.0459346
2.17626
-0.0636794
2.49855
-0.0874765
2.84397
-0.120496
3.20402
-0.167399
3.5553
-0.22626
3.24155
-0.281349
2.44959
-0.37562
1.90165
-0.740143
1.86439
-1.45395
2.55219
-1.94788
2.95212
-2.15446
2.6789
-2.26415
2.24689
-2.34246
1.85384
1.53962
-2.4082
-0.00268274
0.35687
-0.00788141
0.90768
-0.0144734
1.31384
-0.02291
1.6158
-0.0338483
1.89668
-0.0478215
2.19024
-0.0663575
2.51708
-0.0913547
2.86897
-0.125944
3.23861
-0.176237
3.6056
-0.238176
3.30349
-0.309415
2.52083
-0.495499
2.08773
-1.01228
2.38117
-1.64333
3.18324
-1.93852
3.24731
-2.09118
2.83156
-2.20967
2.36539
-2.30538
1.94956
1.60438
-2.37015
-0.00261523
0.359485
-0.00789949
0.912964
-0.0148834
1.32082
-0.0238035
1.62472
-0.0352355
1.90812
-0.0498208
2.20482
-0.0690674
2.53633
-0.0949696
2.89487
-0.131206
3.27485
-0.183979
3.65837
-0.250411
3.36992
-0.342827
2.61324
-0.607282
2.35219
-1.22118
2.99508
-1.73034
3.69239
-1.94491
3.46188
-2.09253
2.97917
-2.22389
2.49676
-2.3419
2.06756
1.66691
-2.40443
-0.00248947
0.361975
-0.00814303
0.918618
-0.0154766
1.32815
-0.0247949
1.63403
-0.0366569
1.91998
-0.0517978
2.21996
-0.0718155
2.55635
-0.0989148
2.92197
-0.136874
3.31281
-0.193431
3.71493
-0.266957
3.44345
-0.388637
2.73492
-0.745057
2.70861
-1.36568
3.6157
-1.74174
4.06845
-1.92535
3.64549
-2.0377
3.09152
-2.13665
2.5957
-2.21168
2.14259
1.66242
-2.20719
-0.002276
0.364251
-0.00788618
0.924228
-0.0156508
1.33592
-0.02553
1.64391
-0.037982
1.93243
-0.0538011
2.23578
-0.0745693
2.57712
-0.102589
2.94999
-0.141655
3.35187
-0.197821
3.77109
-0.275636
3.52127
-0.437005
2.89629
-0.862504
3.13411
-1.42039
4.17359
-1.70015
4.34822
-1.86956
3.8149
-1.97265
3.19461
-1.98266
2.60571
-1.92846
2.0884
1.64966
-1.9157
-0.00203572
0.366287
-0.0079902
0.930182
-0.0160422
1.34397
-0.026238
1.65411
-0.0389697
1.94516
-0.0549976
2.25181
-0.0759575
2.59808
-0.104091
2.97813
-0.143376
3.39116
-0.20195
3.82966
-0.290376
3.60969
-0.481165
3.08708
-0.931718
3.58466
-1.38773
4.6296
-1.57377
4.53425
-1.65203
3.89316
-1.66735
3.20993
-1.52993
2.46829
-1.03923
1.5977
0.610431
-0.00146008
0.367747
-0.0071477
0.93587
-0.0156563
1.35248
-0.0265779
1.66503
-0.040274
1.95886
-0.05754
2.26908
-0.0801417
2.62068
-0.110669
3.00865
-0.153456
3.43395
-0.213944
3.89015
-0.309158
3.7049
-0.544019
3.32194
-1.05385
4.09449
-1.43862
5.01438
-1.54979
4.64542
-1.56065
3.90402
-1.47295
3.12223
-1.23738
2.23272
-0.661249
1.02157
-0.0508179
-0.00106526
0.368812
-0.00677882
0.941584
-0.0155386
1.36124
-0.0269539
1.67645
-0.0412697
1.97317
-0.0594154
2.28722
-0.0833631
2.64462
-0.115794
3.04108
-0.161576
3.47973
-0.231398
3.95998
-0.351524
3.82503
-0.634186
3.6046
-1.1644
4.6247
-1.45891
5.30889
-1.53406
4.72056
-1.52269
3.89266
-1.32304
2.92258
-0.817054
1.72673
-0.126596
0.331113
-0.177414
-0.000173948
0.368986
-0.00486948
0.946279
-0.0139626
1.37033
-0.026093
1.68858
-0.0412632
1.98834
-0.0606132
2.30657
-0.0861158
2.67013
-0.120797
3.07577
-0.170205
3.52914
-0.242304
4.03207
-0.371749
3.95448
-0.702967
3.93582
-1.23184
5.15357
-1.43641
5.51346
-1.47628
4.76044
-1.4034
3.81978
-1.11981
2.639
-0.357559
0.964479
0.0353367
-0.0617828
-0.142078
0.000856464
0.368129
-0.00343586
0.950571
-0.0126391
1.37953
-0.0252154
1.70115
-0.0407131
2.00384
-0.0606637
2.32652
-0.0871686
2.69663
-0.123384
3.11198
-0.174648
3.5804
-0.255758
4.11318
-0.413387
4.1121
-0.788713
4.31115
-1.27437
5.63923
-1.41143
5.65051
-1.42093
4.76994
-1.2492
3.64804
-0.753764
2.14357
-0.0856164
0.296331
0.0380278
-0.185427
-0.10405
0.00275413
0.365375
0.000437646
0.952888
-0.00915868
1.38913
-0.0221779
1.71417
-0.0382244
2.01989
-0.0591168
2.34741
-0.0867557
2.72427
-0.123982
3.14921
-0.176249
3.63267
-0.262186
4.19912
-0.43173
4.28165
-0.851343
4.73076
-1.26008
6.04796
-1.34108
5.73151
-1.32079
4.74965
-1.05634
3.38359
-0.395596
1.48282
-0.024534
-0.0747308
0.00823902
-0.2182
-0.0958109
0.00405462
0.361321
0.00257233
0.95437
-0.00634056
1.39804
-0.0188508
1.72668
-0.0347528
2.03579
-0.0557991
2.36846
-0.0835447
2.75202
-0.121287
3.18695
-0.175237
3.68662
-0.267728
4.29161
-0.454281
4.4682
-0.896485
5.17296
-1.21184
6.36332
-1.26397
5.78365
-1.17671
4.6624
-0.854089
3.06097
-0.160622
0.789355
0.00273358
-0.238086
0.000794212
-0.216261
-0.0950166
0.00652045
0.3548
0.00720677
0.953684
0.000327635
1.40492
-0.0120399
1.73905
-0.0282814
2.05203
-0.049585
2.38976
-0.0772739
2.77971
-0.114915
3.22459
-0.167526
3.73923
-0.26071
4.3848
-0.458644
4.66614
-0.891362
5.60568
-1.11959
6.59154
-1.14018
5.80424
-0.982556
4.50477
-0.544018
2.62243
-0.000538483
0.245875
0.0321243
-0.270749
0.0196059
-0.203742
-0.0754108
0.00899388
0.345806
0.0122217
0.950456
0.00660297
1.41054
-0.00393608
1.74959
-0.0199831
2.06808
-0.0405155
2.4103
-0.0667347
2.80592
-0.102063
3.25992
-0.152251
3.78942
-0.244798
4.47734
-0.451028
4.87237
-0.840538
5.99519
-1.00859
6.75959
-1.04544
5.84108
-0.844334
4.30367
-0.312371
2.09046
-0.0108358
-0.0556594
-0.0039469
-0.277638
0.0130434
-0.220732
-0.0623673
0.013107
0.332699
0.0206622
0.942901
0.0176139
1.41359
0.00770112
1.7595
-0.00775027
2.08353
-0.0261021
2.42865
-0.0505032
2.83033
-0.0840379
3.29345
-0.130809
3.83619
-0.21667
4.5632
-0.414507
5.0702
-0.732334
6.31302
-0.8486
6.87586
-0.860656
5.85314
-0.670504
4.11352
-0.165652
1.58561
-0.064012
-0.157299
-0.0378111
-0.303839
0.00496796
-0.263512
-0.0573994
0.0174236
0.315276
0.0296645
0.93066
0.0295444
1.41371
0.0217454
1.7673
0.00917919
2.0961
-0.00681291
2.44464
-0.0286608
2.85217
-0.0570359
3.32183
-0.0963052
3.87546
-0.167792
4.63469
-0.337013
5.23942
-0.561498
6.5375
-0.659137
6.9735
-0.712109
5.90611
-0.612174
4.01358
-0.332695
1.30613
-0.359551
-0.130443
-0.239047
-0.424343
-0.0968172
-0.405741
-0.154217
0.0233116
0.291964
0.0425967
0.911375
0.0471989
1.40911
0.0418971
1.7726
0.031991
2.106
0.018585
2.45805
0.00099375
2.86977
-0.0205149
3.34334
-0.0486775
3.90362
-0.0968604
4.68287
-0.213236
5.3558
-0.338112
6.66238
-0.416568
7.05196
-0.505096
5.99464
-0.57038
4.07886
-0.634163
1.36992
-0.686531
-0.0780752
-0.501
-0.609874
-0.243976
-0.662766
-0.398192
0.0293271
0.262637
0.0567348
0.883967
0.0674139
1.39843
0.0671662
1.77285
0.061025
2.11214
0.0519137
2.46716
0.0408371
2.88084
0.0259517
3.35822
0.0100553
3.91952
-0.00252488
4.69545
-0.00628346
5.35956
-0.0334235
6.68952
-0.0640765
7.08261
-0.11006
6.04062
-0.211081
4.17989
-0.468862
1.6277
-0.684087
0.13715
-0.590384
-0.703577
-0.311952
-0.941198
-0.710145
0.036547
0.22609
0.0750436
0.845471
0.0939515
1.37952
0.0983703
1.76843
0.096446
2.11407
0.0922713
2.47133
0.0885359
2.88458
0.0863369
3.36042
0.0890989
3.91675
0.107223
4.67733
0.181626
5.28516
0.364412
6.50674
0.512863
6.93416
0.704313
5.84917
0.662618
4.22158
0.262537
2.02778
-0.0841297
0.483816
-0.265834
-0.521872
-0.21098
-0.996052
-0.921124
0.0426984
0.183392
0.0944619
0.793707
0.1239
1.35008
0.13567
1.75666
0.140362
2.10938
0.141759
2.46994
0.146674
2.87966
0.155218
3.35188
0.177377
3.89459
0.246999
4.60771
0.417772
5.11438
0.870932
6.05358
1.24103
6.56406
1.61848
5.47172
1.69082
4.14924
1.2752
2.4434
0.846081
0.912935
0.401168
-0.0769596
0.129152
-0.724036
-0.791972
0.0472725
0.136119
0.116012
0.724968
0.159548
1.30655
0.180061
1.73615
0.192491
2.09694
0.200285
2.46214
0.213981
2.86596
0.234028
3.33183
0.273306
3.85532
0.382835
4.49818
0.63716
4.86006
1.27039
5.42035
1.68504
6.14941
1.99387
5.16289
2.09262
4.05049
1.78737
2.74865
1.30079
1.39951
0.834576
0.389251
0.365135
-0.254595
-0.426838
0.0453218
0.0907972
0.134646
0.635643
0.197138
1.24405
0.229745
1.70354
0.250122
2.07657
0.263863
2.4484
0.283822
2.84601
0.318029
3.29762
0.361658
3.81169
0.475473
4.38436
0.76131
4.57422
1.39645
4.7852
1.80677
5.73909
2.05493
4.91473
2.14175
3.96367
1.92542
2.96498
1.44423
1.88071
0.910988
0.922489
0.379558
0.276836
-0.0472798
0.0384925
0.0523047
0.152492
0.521644
0.239071
1.15747
0.287489
1.65512
0.317749
2.04631
0.339684
2.42647
0.365316
2.82037
0.400045
3.26289
0.44177
3.76996
0.539189
4.28694
0.738949
4.37446
1.19861
4.32554
1.62528
5.31242
1.75965
4.78036
1.78741
3.93591
1.64606
3.10634
1.28319
2.24357
0.822352
1.38333
0.351251
0.747937
0.303971
0.0326496
0.0196551
0.172335
0.381958
0.283574
1.04624
0.34925
1.58945
0.389624
2.00593
0.421604
2.39449
0.447431
2.79455
0.478299
3.23203
0.514733
3.73353
0.561663
4.24001
0.664671
4.27145
0.960827
4.02939
1.36555
4.9077
1.43981
4.7061
1.39646
3.97926
1.25382
3.24898
0.981712
2.51569
0.611229
1.75381
0.240618
1.11855
0.544588
0.0331047
-0.0134497
0.175174
0.239889
0.325098
0.896312
0.419353
1.49519
0.472466
1.95282
0.513874
2.35308
0.541009
2.76741
0.573146
3.19989
0.598584
3.70809
0.589619
4.24898
0.628802
4.23227
0.819876
3.83831
1.15401
4.57357
1.19584
4.66427
1.09177
4.08333
0.938829
3.40191
0.715386
2.73913
0.427762
2.04144
0.155808
1.3905
0.700397
0.0307664
-0.0442161
0.11877
0.151885
0.266908
0.748174
0.37711
1.38499
0.44103
1.8889
0.480106
2.314
0.498115
2.7494
0.504081
3.19392
0.488919
3.72325
0.425197
4.3127
0.391746
4.26572
0.44439
3.78567
0.608103
4.40986
0.61835
4.65402
0.549536
4.15214
0.446874
3.50458
0.322158
2.86384
0.179265
2.18433
0.0543056
1.51546
0.754702
0.00356588
-0.047782
0.00870397
0.146747
0.0888628
0.668015
0.18321
1.29064
0.26167
1.81044
0.318442
2.25723
0.36194
2.7059
0.372244
3.18362
0.3648
3.73069
0.305623
4.37188
0.238342
4.333
0.237264
3.78675
0.366241
4.28088
0.370024
4.65024
0.310959
4.21121
0.226296
3.58924
0.141551
2.94859
0.0551603
2.27072
-0.00714631
1.57777
0.747556
-0.0204461
-0.0273359
-0.0483195
0.174621
-0.0280484
0.647744
0.0438472
1.21875
0.12331
1.73098
0.192519
2.18802
0.253254
2.64517
0.27464
3.16223
0.286867
3.71847
0.234239
4.42451
0.134538
4.4327
0.0866625
3.83462
0.170739
4.1968
0.16862
4.65236
0.126887
4.25294
0.0773185
3.63881
0.0342744
2.99163
-0.0122545
2.31725
-0.0320295
1.59754
0.715526
-0.0316039
0.00426802
-0.0808902
0.223907
-0.0908323
0.657686
-0.0416693
1.16959
0.0353814
1.65393
0.113519
2.10989
0.186582
2.57211
0.234725
3.11409
0.266954
3.68624
0.228036
4.46342
0.102498
4.55824
0.00630181
3.93082
0.0409888
4.16212
0.0444962
4.64885
0.0226641
4.27477
-0.000640555
3.66211
-0.0366165
3.02761
-0.0610082
2.34164
-0.0541854
1.59072
0.661341
-0.033425
0.037693
-0.086891
0.277373
-0.108567
0.679362
-0.0764967
1.13752
-0.00702439
1.58445
0.0761563
2.0267
0.161703
2.48656
0.239904
3.03589