/*--------------------------------*- C++ -*----------------------------------*\
| =========                 |                                                 |
| \\      /  F ield         | OpenFOAM: The Open Source CFD Toolbox           |
|  \\    /   O peration     | Version:  v2012                                 |
|   \\  /    A nd           | Website:  www.openfoam.com                      |
|    \\/     M anipulation  |                                                 |
\*---------------------------------------------------------------------------*/
FoamFile
{
    version     2.0;
    format      ascii;
    class       volVectorField;
    location    "23";
    object      U;
}
// * * * * * * * * * * * * * * * * * * * * * * * * * * * * * * * * * * * * * //

dimensions      [0 1 -1 0 0 0 0];


internalField   nonuniform List<vector> 
2200
(
(0.878861 -0.0304117 0)
(1.0058 -0.0512891 0)
(1.00328 -0.0353883 0)
(1.00026 -0.0244292 0)
(0.999919 -0.0166222 0)
(1.00007 -0.0106101 0)
(0.999974 -0.00673265 0)
(0.999853 -0.00417292 0)
(0.999822 -0.00228619 0)
(1.00017 -0.000794878 0)
(1.00005 0.00103562 0)
(0.999841 0.00251794 0)
(0.99985 0.00437677 0)
(0.999972 0.00692461 0)
(1.00007 0.0107304 0)
(0.999887 0.0167147 0)
(1.00028 0.0245093 0)
(1.00338 0.0354087 0)
(1.00583 0.0513178 0)
(0.878886 0.0304275 0)
(0.711953 -0.0327508 0)
(0.996625 -0.0629888 0)
(1.03331 -0.0561694 0)
(1.02499 -0.0464973 0)
(1.01605 -0.0362366 0)
(1.00971 -0.0265924 0)
(1.00588 -0.0183728 0)
(1.00378 -0.0115518 0)
(1.00268 -0.00607515 0)
(1.00213 -0.00164849 0)
(1.00214 0.00230321 0)
(1.00262 0.00669423 0)
(1.0037 0.0120604 0)
(1.00578 0.0187916 0)
(1.0096 0.027021 0)
(1.016 0.0366373 0)
(1.02487 0.0468336 0)
(1.03306 0.0565183 0)
(0.996483 0.0631563 0)
(0.711715 0.032807 0)
(0.535697 -0.0238762 0)
(0.969945 -0.0568386 0)
(1.05624 -0.054621 0)
(1.05193 -0.0486333 0)
(1.03597 -0.0404393 0)
(1.02434 -0.0324622 0)
(1.01592 -0.0241895 0)
(1.01046 -0.0162845 0)
(1.00724 -0.00896195 0)
(1.00579 -0.0023881 0)
(1.0057 0.00362843 0)
(1.00706 0.0101638 0)
(1.01032 0.0173605 0)
(1.01574 0.0251887 0)
(1.02418 0.0332723 0)
(1.03572 0.0410496 0)
(1.05165 0.0491039 0)
(1.05601 0.0547437 0)
(0.969388 0.0571314 0)
(0.534919 0.0239305 0)
(0.392745 -0.0135616 0)
(0.912074 -0.0462252 0)
(1.05755 -0.0466347 0)
(1.06934 -0.0438426 0)
(1.05448 -0.0375654 0)
(1.03928 -0.030921 0)
(1.02772 -0.0242193 0)
(1.01911 -0.0172734 0)
(1.01343 -0.0100977 0)
(1.01062 -0.00276097 0)
(1.01054 0.0045025 0)
(1.01323 0.0117742 0)
(1.01874 0.0188002 0)
(1.02728 0.0254659 0)
(1.03861 0.0319253 0)
(1.05381 0.0384431 0)
(1.06863 0.0445938 0)
(1.05652 0.0472803 0)
(0.910857 0.0465378 0)
(0.391267 0.0136482 0)
(0.30869 -0.00442337 0)
(0.847383 -0.0321872 0)
(1.04982 -0.0397055 0)
(1.07972 -0.0379791 0)
(1.06811 -0.0330092 0)
(1.05127 -0.027198 0)
(1.03811 -0.0220798 0)
(1.0282 -0.0162713 0)
(1.02134 -0.00972627 0)
(1.01761 -0.00257079 0)
(1.01748 0.00494845 0)
(1.02098 0.0119061 0)
(1.02761 0.0181818 0)
(1.03717 0.0237601 0)
(1.05038 0.0286826 0)
(1.06716 0.0342802 0)
(1.07856 0.039041 0)
(1.04824 0.0405908 0)
(0.844922 0.0325853 0)
(0.306328 0.00452681 0)
(0.265764 0.000100276 0)
(0.789973 -0.0197234 0)
(1.03366 -0.030974 0)
(1.08399 -0.0316875 0)
(1.07767 -0.0284624 0)
(1.06081 -0.0235759 0)
(1.04689 -0.0190913 0)
(1.03588 -0.0142734 0)
(1.02806 -0.00867431 0)
(1.02383 -0.00206316 0)
(1.02356 0.00525067 0)
(1.02735 0.0115738 0)
(1.0348 0.0168089 0)
(1.04586 0.0212758 0)
(1.05953 0.025486 0)
(1.07624 0.030006 0)
(1.08229 0.0329136 0)
(1.03126 0.0319041 0)
(0.786262 0.0201396 0)
(0.262589 -4.67224e-06 0)
(0.242645 0.00114868 0)
(0.741325 -0.0117549 0)
(1.01454 -0.0237205 0)
(1.08391 -0.0255284 0)
(1.08287 -0.0236662 0)
(1.06766 -0.0198912 0)
(1.05384 -0.0160866 0)
(1.0427 -0.0118471 0)
(1.03453 -0.00698368 0)
(1.02978 -0.00114948 0)
(1.0294 0.00516916 0)
(1.0335 0.0107684 0)
(1.0413 0.0152751 0)
(1.05193 0.0191411 0)
(1.0656 0.0223648 0)
(1.08062 0.0257678 0)
(1.08117 0.0272121 0)
(1.0106 0.0249024 0)
(0.735809 0.0122703 0)
(0.238447 -0.001037 0)
(0.22934 0.00114078 0)
(0.700652 -0.00744877 0)
(0.99483 -0.0193397 0)
(1.08138 -0.0214629 0)
(1.08556 -0.019952 0)
(1.07215 -0.0169066 0)
(1.05887 -0.0136809 0)
(1.04843 -0.00965593 0)
(1.04076 -0.00512466 0)
(1.0361 4.20578e-05 0)
(1.0357 0.00508077 0)
(1.03958 0.00988916 0)
(1.04654 0.0138587 0)
(1.05641 0.0170959 0)
(1.06957 0.0200457 0)
(1.08243 0.0225347 0)
(1.07757 0.0235233 0)
(0.989223 0.0208269 0)
(0.692913 0.00808685 0)
(0.223952 -0.000996752 0)
(0.221029 0.000727823 0)
(0.667067 -0.00484945 0)
(0.975656 -0.0161294 0)
(1.07856 -0.0183506 0)
(1.08773 -0.0169372 0)
(1.07557 -0.0144653 0)
(1.06227 -0.0113873 0)
(1.0522 -0.00769058 0)
(1.04477 -0.00358162 0)
(1.0402 0.000916947 0)
(1.03948 0.00516594 0)
(1.04278 0.00927101 0)
(1.04926 0.0127868 0)
(1.05913 0.0160398 0)
(1.07187 0.0182733 0)
(1.08343 0.0200978 0)
(1.0732 0.0209754 0)
(0.967867 0.0179162 0)
(0.656696 0.00560446 0)
(0.214158 -0.000542292 0)
(0.2161 0.000369882 0)
(0.642761 -0.00246156 0)
(0.959094 -0.0117828 0)
(1.07609 -0.0141508 0)
(1.09019 -0.0131247 0)
(1.07862 -0.0111627 0)
(1.06498 -0.00873526 0)
(1.05441 -0.005637 0)
(1.0467 -0.00205223 0)
(1.04204 0.00198355 0)
(1.04112 0.00606065 0)
(1.04428 0.00957203 0)
(1.05092 0.0123348 0)
(1.06025 0.0145212 0)
(1.07348 0.0158958 0)
(1.08452 0.0171497 0)
(1.06892 0.0173941 0)
(0.948369 0.0139456 0)
(0.629301 0.00340679 0)
(0.20742 -0.000146461 0)
(0.214018 0.000137921 0)
(0.628134 -0.000617538 0)
(0.945277 -0.00703048 0)
(1.07334 -0.00919563 0)
(1.0925 -0.00863623 0)
(1.0819 -0.00700884 0)
(1.06813 -0.00515238 0)
(1.05712 -0.00296234 0)
(1.04885 -0.000244259 0)
(1.04375 0.00306644 0)
(1.04263 0.00677425 0)
(1.04571 0.00930858 0)
(1.05256 0.0111571 0)
(1.06272 0.0118904 0)
(1.07599 0.0131639 0)
(1.08504 0.01384 0)
(1.06357 0.0131806 0)
(0.931048 0.00958549 0)
(0.610896 0.00175987 0)
(0.202962 8.85416e-05 0)
(0.213795 -2.10266e-05 0)
(0.620795 0.00027912 0)
(0.935321 -0.00334877 0)
(1.07094 -0.00542997 0)
(1.09467 -0.00525453 0)
(1.08537 -0.00373799 0)
(1.07191 -0.00196412 0)
(1.06112 -7.23044e-05 0)
(1.05278 0.00225147 0)
(1.04742 0.00478606 0)
(1.04586 0.00761251 0)
(1.04845 0.00924762 0)
(1.0547 0.0102067 0)
(1.0644 0.0110784 0)
(1.07687 0.0110706 0)
(1.08464 0.0109891 0)
(1.05807 0.00990417 0)
(0.917547 0.0064506 0)
(0.599952 0.0010673 0)
(0.200185 0.000195341 0)
(0.214666 -5.24564e-05 0)
(0.619144 0.00085309 0)
(0.929808 -0.000927511 0)
(1.06907 -0.00258129 0)
(1.0961 -0.00244723 0)
(1.08795 -0.0013775 0)
(1.0749 -5.89525e-05 0)
(1.06442 0.00180479 0)
(1.05648 0.00411657 0)
(1.0512 0.00651214 0)
(1.04913 0.0089224 0)
(1.05079 0.0102416 0)
(1.05599 0.0110421 0)
(1.06436 0.0113219 0)
(1.07625 0.0105626 0)
(1.08295 0.0100736 0)
(1.05208 0.00864582 0)
(0.906069 0.00512381 0)
(0.591738 0.00111869 0)
(0.197485 0.0002663 0)
(0.21634 0.00019822 0)
(0.619615 0.00117219 0)
(0.925818 0.000607312 0)
(1.06747 -0.000495973 0)
(1.09671 -0.000344922 0)
(1.089 0.000481435 0)
(1.07612 0.001723 0)
(1.06563 0.00369229 0)
(1.05763 0.00599778 0)
(1.0522 0.0085865 0)
(1.04971 0.0108619 0)
(1.05086 0.012139 0)
(1.05577 0.0122962 0)
(1.06366 0.0118732 0)
(1.07496 0.0107497 0)
(1.08007 0.00970245 0)
(1.04605 0.00762791 0)
(0.896823 0.00423989 0)
(0.585566 0.00116475 0)
(0.194968 0.000279826 0)
(0.219396 0.000412244 0)
(0.622012 0.0015805 0)
(0.925014 0.00221385 0)
(1.06664 0.00172603 0)
(1.09709 0.00187793 0)
(1.09002 0.00250298 0)
(1.07748 0.00355041 0)
(1.06703 0.0054929 0)
(1.0588 0.0078936 0)
(1.05289 0.010764 0)
(1.04977 0.0130234 0)
(1.05025 0.0142887 0)
(1.05453 0.0142334 0)
(1.06196 0.0132381 0)
(1.07246 0.0119161 0)
(1.07594 0.0101261 0)
(1.03937 0.00742325 0)
(0.888016 0.00391032 0)
(0.57937 0.00122945 0)
(0.192204 0.000285464 0)
(0.22284 0.000428969 0)
(0.62606 0.00201162 0)
(0.926149 0.00355752 0)
(1.06622 0.00331649 0)
(1.09785 0.00342258 0)
(1.0919 0.00413535 0)
(1.08016 0.00563252 0)
(1.0701 0.00799286 0)
(1.06176 0.0107436 0)
(1.05516 0.013924 0)
(1.05103 0.0161517 0)
(1.05033 0.0173102 0)
(1.05338 0.0170141 0)
(1.05969 0.015775 0)
(1.0688 0.0136609 0)
(1.07044 0.0109877 0)
(1.03146 0.00751665 0)
(0.87933 0.00396867 0)
(0.573598 0.00148182 0)
(0.189403 0.000331981 0)
(0.22821 0.00051991 0)
(0.63451 0.002554 0)
(0.92968 0.00473754 0)
(1.06666 0.00522065 0)
(1.09862 0.00539692 0)
(1.09412 0.00601878 0)
(1.08349 0.00783713 0)
(1.07405 0.0105982 0)
(1.06573 0.0139473 0)
(1.05852 0.0175227 0)
(1.05328 0.0198244 0)
(1.05137 0.0207672 0)
(1.05294 0.0201294 0)
(1.05789 0.0185478 0)
(1.06485 0.0160583 0)
(1.06445 0.0127946 0)
(1.02346 0.00891278 0)
(0.870911 0.00497035 0)
(0.5667 0.00203925 0)
(0.185624 0.000434805 0)
(0.233111 0.000628974 0)
(0.640992 0.00291811 0)
(0.933706 0.00566162 0)
(1.06813 0.00679743 0)
(1.09994 0.00744087 0)
(1.0966 0.00865886 0)
(1.08702 0.011069 0)
(1.07783 0.0144708 0)
(1.0692 0.0184622 0)
(1.06107 0.0224212 0)
(1.05447 0.0248492 0)
(1.05119 0.0254581 0)
(1.05112 0.0244499 0)
(1.0544 0.022205 0)
(1.05902 0.0190383 0)
(1.05625 0.0147122 0)
(1.01303 0.0100233 0)
(0.860192 0.00580102 0)
(0.557986 0.00255507 0)
(0.180816 0.000539824 0)
(0.241224 0.00085224 0)
(0.653969 0.00399131 0)
(0.941996 0.00786102 0)
(1.07128 0.00996157 0)
(1.10186 0.0111277 0)
(1.0997 0.0127606 0)
(1.09104 0.0157422 0)
(1.08197 0.0196542 0)
(1.07267 0.0240551 0)
(1.06317 0.0281363 0)
(1.05499 0.0303874 0)
(1.05015 0.0302596 0)
(1.0486 0.0283809 0)
(1.05014 0.0252506 0)
(1.0526 0.0212883 0)
(1.04769 0.0166811 0)
(1.00324 0.0118476 0)
(0.85041 0.00720575 0)
(0.548254 0.00317762 0)
(0.174911 0.000647053 0)
(0.249458 0.00111239 0)
(0.665675 0.00472682 0)
(0.950737 0.00950387 0)
(1.07627 0.0126312 0)
(1.10584 0.015231 0)
(1.10435 0.0182146 0)
(1.09626 0.0220686 0)
(1.08699 0.0266872 0)
(1.07673 0.0315956 0)
(1.06561 0.0356604 0)
(1.05542 0.0374098 0)
(1.04857 0.0363257 0)
(1.04509 0.033432 0)
(1.04452 0.0294363 0)
(1.04475 0.024586 0)
(1.0374 0.0189858 0)
(0.990428 0.0133258 0)
(0.835917 0.00824316 0)
(0.535001 0.00373279 0)
(0.167568 0.000756422 0)
(0.262462 0.00145268 0)
(0.685553 0.00668081 0)
(0.965447 0.0131711 0)
(1.0848 0.0177868 0)
(1.11212 0.0213254 0)
(1.11083 0.0251914 0)
(1.10275 0.0301254 0)
(1.09277 0.0355989 0)
(1.08105 0.040933 0)
(1.06771 0.044813 0)
(1.05499 0.0457539 0)
(1.04582 0.0434033 0)
(1.0404 0.0390753 0)
(1.03777 0.0337023 0)
(1.03586 0.0278066 0)
(1.02672 0.0219028 0)
(0.978796 0.0160378 0)
(0.824004 0.0103686 0)
(0.521757 0.0046212 0)
(0.159313 0.000893464 0)
(0.277499 0.00203424 0)
(0.708204 0.00806251 0)
(0.983177 0.0164488 0)
(1.09646 0.0227475 0)
(1.12119 0.0281417 0)
(1.1193 0.0341854 0)
(1.11048 0.0405846 0)
(1.09914 0.0470595 0)
(1.08537 0.052846 0)
(1.06948 0.0564155 0)
(1.05406 0.0561027 0)
(1.04226 0.0520839 0)
(1.03448 0.0462328 0)
(1.0297 0.0398064 0)
(1.02584 0.0329503 0)
(1.0144 0.0259724 0)
(0.962906 0.0190133 0)
(0.803273 0.012209 0)
(0.501427 0.00547505 0)
(0.148391 0.00106941 0)
(0.299059 0.00291778 0)
(0.738844 0.0119418 0)
(1.00669 0.0222432 0)
(1.11221 0.030662 0)
(1.13367 0.0377345 0)
(1.13037 0.0456668 0)
(1.11984 0.0534357 0)
(1.10615 0.0610913 0)
(1.08943 0.067194 0)
(1.07007 0.0700855 0)
(1.05102 0.0683238 0)
(1.03628 0.0626701 0)
(1.02644 0.055093 0)
(1.01972 0.046795 0)
(1.01402 0.0385469 0)
(1.00085 0.030611 0)
(0.947647 0.0228718 0)
(0.787126 0.0151643 0)
(0.483023 0.00672558 0)
(0.136929 0.00117844 0)
(0.329677 0.00404643 0)
(0.780608 0.0147936 0)
(1.0379 0.0294365 0)
(1.13361 0.0406115 0)
(1.15041 0.0503758 0)
(1.14423 0.0608395 0)
(1.13055 0.0707509 0)
(1.11349 0.0793501 0)
(1.09308 0.0854331 0)
(1.06993 0.087349 0)
(1.04748 0.083673 0)
(1.02977 0.0755482 0)
(1.01711 0.0658794 0)
(1.00817 0.0561247 0)
(1.00055 0.0465453 0)
(0.984803 0.0373823 0)
(0.926386 0.0280443 0)
(0.756576 0.0181549 0)
(0.451563 0.00771829 0)
(0.121037 0.00134702 0)
(0.366236 0.00795849 0)
(0.831258 0.0245006 0)
(1.07722 0.0416093 0)
(1.16023 0.0565122 0)
(1.17122 0.0682941 0)
(1.16054 0.0821295 0)
(1.1427 0.0930473 0)
(1.12121 0.101921 0)
(1.09617 0.107325 0)
(1.06819 0.107393 0)
(1.04106 0.101085 0)
(1.01984 0.0906583 0)
(1.00522 0.0790171 0)
(0.994499 0.0671679 0)
(0.984915 0.0558685 0)
(0.966455 0.0448259 0)
(0.90394 0.033742 0)
(0.732417 0.0222402 0)
(0.426674 0.00969666 0)
(0.106723 0.00130494 0)
(0.449965 0.0115513 0)
(0.910487 0.0345253 0)
(1.129 0.0611883 0)
(1.19313 0.0792584 0)
(1.19716 0.095753 6.98831e-35)
(1.1791 0.111103 -4.79032e-35)
(1.15541 0.122124 0)
(1.12819 0.130493 0)
(1.0978 0.134119 0)
(1.065 0.131614 0)
(1.03418 0.122407 0)
(1.01007 0.108882 0)
(0.991991 0.0944423 0)
(0.978588 0.0807048 0)
(0.966843 0.067749 0)
(0.944804 0.0554151 0)
(0.87458 0.0422848 0)
(0.68766 0.0274755 0)
(0.376213 0.0102432 0)
(0.083103 0.0010643 0)
(0.516924 0.0265878 -7.59474e-21)
(1.00094 0.0589131 5.10772e-21)
(1.18546 0.0935839 0)
(1.22913 0.115246 7.51202e-22)
(1.22358 0.134682 -6.08714e-22)
(1.19722 0.149521 5.054e-35)
(1.167 0.159543 0)
(1.13361 0.166257 4.75006e-21)
(1.09737 0.16745 -1.70561e-20)
(1.0586 0.16196 3.77286e-21)
(1.02178 0.149113 0)
(0.992652 0.132334 -1.24302e-20)
(0.972457 0.115994 -1.55686e-20)
(0.956955 0.100097 2.73807e-20)
(0.94158 0.0851649 -2.20275e-20)
(0.913074 0.0699718 0)
(0.830472 0.0532205 -8.47017e-21)
(0.629602 0.0345577 0)
(0.327118 0.0152156 -4.57738e-20)
(0.0653958 0.00187525 5.41698e-20)
(0.545954 0.0547893 6.52366e-23)
(1.05393 0.102436 -4.54154e-20)
(1.22946 0.145278 1.19518e-20)
(1.26203 0.163954 1.78029e-20)
(1.2475 0.18285 -5.61382e-22)
(1.21327 0.195627 1.68155e-21)
(1.17644 0.203849 0)
(1.13669 0.208435 0)
(1.09413 0.207166 2.66848e-20)
(1.04917 0.198784 0)
(1.00756 0.183048 4.26457e-20)
(0.974925 0.164756 1.33359e-20)
(0.94855 0.146069 3.38558e-22)
(0.927335 0.128863 -3.075e-20)
(0.908258 0.112887 0)
(0.876134 0.0977772 0)
(0.791418 0.0775335 -1.43022e-19)
(0.598461 0.0551866 3.5883e-19)
(0.314602 0.0255999 -2.13231e-19)
(0.0644836 0.0062642 -2.52954e-19)
(0.549122 0.0792059 7.90211e-20)
(1.08304 0.160419 -2.32233e-20)
(1.26206 0.207634 -6.1706e-21)
(1.28831 0.223553 -3.42105e-20)
(1.26616 0.239324 1.3731e-20)
(1.2255 0.248019 7.46113e-22)
(1.18269 0.252925 3.81824e-21)
(1.13691 0.254395 0)
(1.08829 0.250132 -5.5239e-20)
(1.03734 0.238842 6.19221e-20)
(0.989468 0.220955 -1.16643e-19)
(0.950291 0.199385 5.69659e-20)
(0.921846 0.179834 -4.21863e-20)
(0.899439 0.162088 9.22964e-20)
(0.877015 0.145915 0)
(0.843057 0.130017 -3.63373e-20)
(0.761958 0.110321 0)
(0.584343 0.0790189 2.06223e-19)
(0.318342 0.0432577 -4.89424e-19)
(0.0763911 0.0104714 3.07128e-19)
(0.537636 0.11135 -3.74679e-19)
(1.09762 0.219263 1.49719e-19)
(1.28183 0.274627 2.42491e-20)
(1.30588 0.28827 0)
(1.27856 0.300508 1.86441e-20)
(1.23317 0.304411 -2.02122e-20)
(1.18524 0.305392 -3.97612e-21)
(1.13403 0.303116 0)
(1.08002 0.295224 3.89686e-20)
(1.02381 0.280302 -4.249e-20)
(0.971023 0.258194 1.0263e-19)
(0.928991 0.235463 0)
(0.8958 0.215237 -8.88448e-20)
(0.868673 0.197485 4.88635e-20)
(0.845326 0.181227 1.33266e-19)
(0.813085 0.165734 -1.17276e-19)
(0.738216 0.143856 1.93948e-19)
(0.576469 0.108064 -4.30787e-19)
(0.330555 0.0624523 2.73386e-19)
(0.0886035 0.0173936 -3.42833e-19)
(0.520967 0.135493 2.31344e-19)
(1.10008 0.274205 -1.7049e-19)
(1.29163 0.341948 7.58308e-20)
(1.31512 0.353788 -1.0429e-19)
(1.28426 0.362831 7.03196e-20)
(1.23562 0.362362 -1.17092e-20)
(1.18376 0.359436 3.67006e-21)
(1.12831 0.353178 -2.47617e-20)
(1.06996 0.341325 -3.8815e-20)
(1.00905 0.322666 -9.14387e-20)
(0.952376 0.298395 -2.21614e-19)
(0.907019 0.274004 -7.48766e-20)
(0.872662 0.252023 2.6754e-21)
(0.846136 0.233491 -1.76729e-19)
(0.821081 0.216893 -6.34492e-21)
(0.788094 0.199539 1.72478e-19)
(0.718438 0.176426 -5.36824e-20)
(0.57054 0.136885 -3.1335e-20)
(0.339495 0.0825273 0)
(0.0969411 0.0243003 7.36167e-19)
(0.501599 0.156855 0)
(1.09143 0.324856 5.28527e-20)
(1.29335 0.406214 0)
(1.31811 0.417855 -1.22387e-20)
(1.28474 0.424667 -8.53964e-20)
(1.2337 0.420182 1.85106e-20)
(1.17885 0.413525 6.24993e-22)
(1.12014 0.403326 4.48709e-20)
(1.05818 0.387645 -2.34845e-20)
(0.993285 0.365096 3.97719e-20)
(0.932283 0.337175 1.19625e-19)
(0.882956 0.308649 1.65973e-19)
(0.845704 0.285229 -1.03905e-19)
(0.816439 0.265663 1.91908e-19)
(0.79409 0.249023 -1.54254e-19)
(0.766136 0.233322 0)
(0.704298 0.2098 -4.11475e-19)
(0.566767 0.166119 5.53136e-19)
(0.344628 0.101719 4.18466e-20)
(0.101652 0.0307038 -7.81131e-19)
(0.486114 0.177612 -5.47699e-21)
(1.08191 0.374056 -1.39056e-19)
(1.2901 0.467515 -4.18743e-19)
(1.31591 0.47927 2.31324e-19)
(1.28045 0.484504 -5.07349e-20)
(1.22785 0.476641 2.76633e-20)
(1.17085 0.466653 -1.1519e-20)
(1.10953 0.45283 -2.77472e-21)
(1.04429 0.433544 -8.16998e-20)
(0.975807 0.407605 7.10886e-22)
(0.912352 0.376262 -1.30686e-19)
(0.863918 0.347088 -1.77081e-19)
(0.828775 0.322695 1.17162e-19)
(0.80222 0.302331 -6.90568e-20)
(0.775917 0.284321 1.68117e-19)
(0.744403 0.264901 0)
(0.683973 0.239217 -2.55322e-19)
(0.554496 0.192773 3.77675e-19)
(0.342355 0.118719 7.23329e-19)
(0.102083 0.0356272 -8.48947e-19)
(0.470992 0.195393 -6.85891e-19)
(1.06754 0.418971 3.46553e-19)
(1.28308 0.525262 2.70313e-19)
(1.31022 0.537792 -2.51045e-19)
(1.27304 0.541937 1.12163e-20)
(1.21927 0.531035 7.40222e-20)
(1.16054 0.518128 -4.08535e-22)
(1.09718 0.501055 -1.66774e-20)
(1.02964 0.478374 -5.0989e-20)
(0.959058 0.448683 8.93065e-20)
(0.893751 0.413239 1.23063e-19)
(0.84125 0.379844 2.77556e-19)
(0.801072 0.351621 0)
(0.769473 0.328067 5.56872e-21)
(0.748847 0.309504 -4.68122e-19)
(0.724733 0.294425 1.0754e-19)
(0.671386 0.267917 5.49161e-19)
(0.545806 0.216644 -1.6126e-19)
(0.333617 0.133344 3.42865e-19)
(0.0993644 0.0387729 -2.86069e-20)
(0.461597 0.214372 6.20092e-21)
(1.05559 0.463019 3.20925e-19)
(1.2737 0.580561 2.05348e-19)
(1.30145 0.593605 -4.47953e-19)
(1.26276 0.596441 2.85876e-19)
(1.20834 0.582868 -9.11658e-20)
(1.14836 0.567503 -3.03768e-21)
(1.08342 0.547541 3.40972e-20)
(1.01385 0.521811 8.89793e-20)
(0.940543 0.488812 -1.15847e-19)
(0.872441 0.45067 0)
(0.819907 0.414539 -1.09822e-19)
(0.783903 0.385641 1.26085e-19)
(0.758334 0.363026 1.70326e-19)
(0.731552 0.343898 -9.76663e-20)
(0.701963 0.320684 -2.47197e-19)
(0.647426 0.292396 -7.51368e-20)
(0.528009 0.234951 -1.21e-21)
(0.322206 0.143352 0)
(0.0944286 0.0414556 0)
(0.452778 0.229786 -3.39324e-19)
(1.04181 0.503413 0)
(1.26229 0.632265 2.35255e-19)
(1.29088 0.646493 -1.08264e-19)
(1.25105 0.648173 -2.97292e-19)
(1.1961 0.632032 8.20052e-20)
(1.13504 0.61454 -9.22337e-21)
(1.06881 0.592043 -1.44381e-20)
(0.997588 0.563634 5.47797e-20)
(0.922303 0.527453 -4.83758e-20)
(0.851949 0.484932 6.91011e-20)
(0.797567 0.444897 3.42927e-19)
(0.756489 0.412676 1.3474e-20)
(0.723342 0.385357 -1.73772e-19)
(0.702937 0.361812 3.36448e-19)
(0.681688 0.345222 4.49693e-21)
(0.63333 0.31294 8.03879e-20)
(0.51384 0.252819 -3.90479e-19)
(0.30944 0.151151 3.95582e-19)
(0.0885101 0.0431279 -4.72805e-19)
(0.446291 0.248975 3.18336e-23)
(1.02984 0.542898 0)
(1.25014 0.681432 0)
(1.27889 0.696672 1.01149e-19)
(1.23803 0.697007 1.16458e-19)
(1.18276 0.678506 -6.82864e-20)
(1.1208 0.659139 4.46701e-20)
(1.05349 0.634469 0)
(0.980573 0.603701 -9.03764e-20)
(0.903117 0.564856 1.69508e-19)
(0.830594 0.519848 2.11794e-19)
(0.774193 0.477654 -1.29462e-19)
(0.734612 0.441688 -1.62765e-19)
(0.710723 0.413681 3.85096e-19)
(0.685964 0.391273 -1.19007e-19)
(0.657872 0.365212 -1.44625e-19)
(0.606577 0.332046 -8.85404e-20)
(0.49225 0.264705 -4.23651e-19)
(0.295131 0.156754 5.96604e-20)
(0.0819284 0.0437072 5.1386e-19)
(0.442535 0.267822 -1.3569e-19)
(1.018 0.579439 -2.145e-19)
(1.2372 0.727126 2.36553e-20)
(1.26628 0.744031 6.1669e-23)
(1.22471 0.743333 3.8269e-20)
(1.16909 0.72254 -1.82242e-19)
(1.10625 0.701391 0)
(1.03786 0.674754 1.29064e-20)
(0.963471 0.64188 -1.01769e-20)
(0.88389 0.600572 2.66944e-19)
(0.808357 0.552216 -5.3331e-20)
(0.749668 0.505329 5.91551e-20)
(0.709539 0.467164 0)
(0.674983 0.434779 -2.10333e-19)
(0.655568 0.407281 2.62519e-19)
(0.636058 0.385422 0)
(0.589803 0.345961 -1.93817e-19)
(0.473882 0.276513 5.66847e-19)
(0.279611 0.160429 6.74146e-20)
(0.0749491 0.0432668 -6.36685e-19)
(0.440555 0.284833 -3.01256e-19)
(1.00792 0.614805 3.8655e-19)
(1.22425 0.770305 0)
(1.25315 0.788612 2.51787e-19)
(1.21092 0.786947 0)
(1.15507 0.764191 1.70817e-19)
(1.09147 0.741424 0)
(1.02216 0.713 0)
(0.946355 0.678466 -3.19318e-20)
(0.864693 0.635356 -2.60606e-19)
(0.787243 0.584477 -3.94201e-19)
(0.727503 0.535201 7.5105e-20)
(0.684451 0.492552 2.81466e-19)
(0.660768 0.458749 2.36915e-19)
(0.6365 0.430683 -8.42465e-19)
(0.609901 0.399188 -3.48506e-19)
(0.560881 0.361586 2.02584e-19)
(0.449121 0.282811 0)
(0.262611 0.161924 5.83832e-19)
(0.0673838 0.041832 -6.90825e-19)
(0.439097 0.300565 3.32241e-19)
(0.997578 0.647199 -4.24906e-19)
(1.21116 0.810154 0)
(1.23993 0.830295 -1.02572e-20)
(1.19723 0.828048 -1.03548e-19)
(1.14119 0.803608 0)
(1.07694 0.779361 -1.43363e-20)
(1.00675 0.749286 1.97447e-20)
(0.929538 0.713173 -3.88396e-20)
(0.845907 0.667901 2.52358e-20)
(0.765613 0.614205 0)
(0.70296 0.561818 2.99781e-19)
(0.659494 0.51596 3.94023e-21)
(0.62358 0.475852 1.28733e-19)
(0.604962 0.44124 1.55272e-19)
(0.587029 0.41654 0)
(0.542119 0.3675 -3.42011e-19)
(0.428782 0.288559 6.70481e-19)
(0.245117 0.161206 -7.13431e-19)
(0.0600043 0.0394559 1.49951e-18)
(0.437883 0.315502 0)
(0.988523 0.678868 0)
(1.19849 0.847844 -2.33734e-19)
(1.22666 0.869359 0)
(1.18348 0.866487 0)
(1.12735 0.840679 2.45279e-19)
(1.06262 0.815237 -1.81218e-20)
(0.991678 0.783772 1.69964e-20)
(0.913238 0.746408 -2.05616e-21)
(0.827483 0.700527 0)
(0.743959 0.646791 -6.34836e-20)
(0.678301 0.590676 -2.48648e-19)
(0.631797 0.539377 -3.12659e-19)
(0.607225 0.497873 -1.30084e-19)
(0.58446 0.463612 1.7098e-19)
(0.558593 0.423288 -4.06169e-19)
(0.51113 0.379254 7.40298e-19)
(0.401525 0.289486 6.59584e-21)
(0.226907 0.158354 -6.9015e-19)
(0.0527192 0.0365061 -1.02385e-19)
(0.43654 0.330081 0)
(0.979236 0.708068 -3.31401e-19)
(1.18592 0.882659 2.60762e-19)
(1.2136 0.905777 0)
(1.17004 0.902492 0)
(1.1139 0.875561 -5.42225e-19)
(1.04885 0.84911 0)
(0.977403 0.816437 0)
(0.897978 0.778077 -6.37461e-20)
(0.811229 0.730866 4.99265e-20)
(0.726718 0.673057 -5.05022e-19)
(0.657455 0.614036 0)
(0.607096 0.563589 -3.40246e-19)
(0.566815 0.514114 1.15166e-20)
(0.54766 0.469067 -5.47017e-19)
(0.532945 0.435144 2.20172e-19)
(0.490905 0.375784 3.62066e-21)
(0.382372 0.287545 -7.90301e-19)
(0.210417 0.154064 3.7495e-19)
(0.047237 0.0335438 1.0954e-19)
(0.435277 0.344198 0)
(0.971151 0.736707 -3.90746e-19)
(1.1739 0.915773 2.77652e-19)
(1.20077 0.939938 5.83416e-19)
(1.15684 0.936045 1.18346e-19)
(1.10076 0.908154 -8.23514e-20)
(1.0355 0.880923 5.11399e-20)
(0.963633 0.847313 -9.78381e-20)
(0.883287 0.808183 6.81901e-20)
(0.793738 0.760102 3.02028e-19)
(0.702339 0.703677 4.18859e-19)
(0.628207 0.645085 8.09032e-20)
(0.576011 0.58562 4.94075e-19)
(0.547935 0.534271 3.21428e-19)
(0.524235 0.488828 3.95073e-19)
(0.500711 0.433453 -2.46824e-19)
(0.45755 0.380571 -2.91933e-19)
(0.354404 0.280901 3.43312e-19)
(0.192559 0.14485 -2.02828e-19)
(0.0433974 0.0327751 3.57809e-19)
(0.433927 0.357847 5.14164e-19)
(0.962868 0.762895 6.20629e-19)
(1.16203 0.94637 1.52519e-19)
(1.18829 0.971793 1.61267e-20)
(1.14409 0.967422 -4.10955e-19)
(1.08812 0.938688 1.5708e-19)
(1.02275 0.910795 -5.84821e-20)
(0.950571 0.876478 -2.1429e-20)
(0.869192 0.836722 -5.77052e-20)
(0.778136 0.788583 -3.38067e-19)
(0.688108 0.730648 2.48839e-20)
(0.61201 0.668914 0)
(0.552929 0.611882 0)
(0.504098 0.552311 -1.63325e-19)
(0.480597 0.490707 -6.50883e-19)
(0.467184 0.441669 5.35668e-19)
(0.435233 0.358153 3.27253e-19)
(0.34708 0.260138 0)
(0.197064 0.123709 6.47448e-19)
(0.0380432 0.0133189 -3.87166e-19)
(0.432724 0.370753 -2.74726e-19)
(0.955562 0.788427 2.37569e-19)
(1.15078 0.975512 -3.40062e-19)
(1.17624 1.00172 -3.66548e-19)
(1.13177 0.99667 -1.62139e-19)
(1.07593 0.967127 3.77424e-20)
(1.01049 0.938709 0)
(0.938029 0.903736 1.42163e-19)
(0.855922 0.863613 1.08069e-20)
(0.763816 0.814953 0)
(0.668639 0.757508 0)
(0.584811 0.697347 5.67765e-20)
(0.519809 0.633455 8.72184e-20)
(0.482889 0.572233 -1.76368e-19)
(0.452111 0.513967 4.70651e-19)
(0.424851 0.432036 -5.90089e-19)
(0.389717 0.350378 -7.02959e-19)
(0.32687 0.236031 6.23097e-19)
(0.225209 0.141228 -2.33397e-19)
(0.122746 0.0927588 1.33856e-19)
(0.431275 0.382877 3.17016e-19)
(0.947963 0.811522 0)
(1.13968 1.00228 0)
(1.16457 1.02955 -1.23477e-19)
(1.11996 1.02402 9.9946e-20)
(1.06427 0.99375 -2.06955e-20)
(0.998749 0.964797 -2.22272e-19)
(0.926048 0.929393 -2.20956e-19)
(0.843353 0.889185 5.32546e-20)
(0.749248 0.840874 -2.75049e-20)
(0.651444 0.784497 6.65933e-20)
(0.56583 0.721937 -4.6639e-19)
(0.500535 0.660978 -5.15057e-19)
(0.43567 0.596251 -9.41114e-20)
(0.396098 0.516586 0)
(0.372902 0.444203 -1.26487e-20)
(0.347888 0.299988 3.88099e-19)
(0.305263 0.139191 -6.52775e-19)
(0.26651 -0.0204274 4.84105e-19)
(0.0812635 -0.0866038 3.86556e-19)
(0.42993 0.394368 -6.90936e-19)
(0.941147 0.834093 -2.98455e-19)
(1.12916 1.02794 6.40353e-21)
(1.1533 1.0559 1.57175e-19)
(1.1085 1.0498 0)
(1.05292 1.0189 4.67586e-19)
(0.987388 0.98965 2.76687e-19)
(0.914646 0.953997 -4.54257e-20)
(0.831377 0.913617 -1.35639e-20)
(0.73634 0.865472 -2.58242e-20)
(0.637266 0.808823 2.39859e-20)
(0.548051 0.751104 4.12376e-19)
(0.464664 0.689532 5.0341e-19)
(0.413738 0.619706 9.07334e-20)
(0.365213 0.55314 5.02552e-19)
(0.306974 0.437798 0)
(0.209794 0.298032 0)
(0.0478197 0.285277 4.82895e-19)
(-0.0656753 0.630155 -3.34922e-20)
(0.000312921 1.49944 -6.20904e-19)
(0.428189 0.405246 3.76135e-19)
(0.934042 0.854529 8.95599e-19)
(1.11869 1.05159 -1.34784e-18)
(1.14229 1.08066 8.1267e-19)
(1.09736 1.07437 -9.49886e-20)
(1.04195 1.04313 6.10216e-19)
(0.976391 1.0137 0)
(0.903384 0.97798 2.29275e-19)
(0.81954 0.93824 0)
(0.722977 0.891205 2.39958e-19)
(0.619435 0.837985 -3.80977e-20)
(0.522273 0.77903 4.27169e-20)
(0.448974 0.719938 5.58539e-19)
(0.361744 0.660703 -2.0648e-19)
(0.277575 0.572185 -2.63227e-19)
(0.209385 0.502045 0)
(0.109189 0.588829 0)
(0.0397434 1.24569 0)
(0.079412 2.42483 -2.71552e-19)
(0.110457 2.89202 -1.68573e-19)
(0.426509 0.415695 0)
(0.927697 0.874571 0)
(1.10886 1.07443 4.82342e-19)
(1.13173 1.10424 -6.77419e-19)
(1.08664 1.09767 4.65082e-19)
(1.03134 1.06617 -5.59212e-19)
(0.96576 1.03682 -3.19716e-20)
(0.892793 1.00143 2.48932e-20)
(0.808727 0.962133 5.64153e-21)
(0.711244 0.916103 -2.72659e-19)
(0.607181 0.862949 5.77691e-20)
(0.512784 0.810869 3.87557e-19)
(0.4116 0.759193 -5.5023e-19)
(0.340979 0.688754 -6.46276e-19)
(0.274639 0.637287 2.26063e-19)
(0.209238 0.755049 0)
(0.146289 1.48773 3.26609e-19)
(0.144895 2.6672 3.64433e-19)
(0.150282 3.07909 -4.07864e-19)
(0.141029 3.21834 4.49222e-19)
(0.424483 0.425325 0)
(0.921039 0.892438 7.27947e-19)
(1.09907 1.09526 -1.25017e-19)
(1.12147 1.12623 8.5277e-19)
(1.07628 1.11974 -4.88175e-19)
(1.02119 1.08826 0)
(0.955716 1.05912 0)
(0.882677 1.02399 0)
(0.798051 0.985641 -7.9805e-20)
(0.699355 0.941578 2.0501e-21)
(0.592184 0.892185 0)
(0.484272 0.841627 -3.77987e-19)
(0.405521 0.791552 0)
(0.29561 0.746565 4.59678e-19)
(0.218467 0.82415 -2.99378e-19)
(0.172713 1.43996 -2.51401e-19)
(0.181045 2.65774 -6.18214e-19)
(0.199838 3.12539 -3.08604e-19)
(0.189696 3.27232 -3.54709e-19)
(0.174421 3.31358 3.05578e-19)
(0.422624 0.434315 -2.45867e-19)
(0.915139 0.910092 1.50455e-20)
(1.08996 1.11556 -1.34719e-19)
(1.11172 1.14727 -6.82471e-19)
(1.06637 1.14071 0)
(1.01143 1.10927 0)
(0.945931 1.08048 0)
(0.87287 1.04603 -1.58396e-20)
(0.788295 1.00893 9.11652e-20)
(0.689424 0.966284 0)
(0.580737 0.919921 0)
(0.483358 0.876198 0)
(0.370349 0.83718 0)
(0.308776 0.831153 3.01838e-19)
(0.286682 1.18188 7.89397e-19)
(0.278419 2.32835 2.46524e-19)
(0.288788 3.07984 4.48878e-19)
(0.280663 3.29219 -2.8666e-19)
(0.229671 3.36098 1.05668e-19)
(0.195223 3.3737 0)
(0.420432 0.442794 2.49203e-19)
(0.908649 0.925984 -1.57021e-18)
(1.0806 1.13437 -4.45138e-19)
(1.10202 1.16732 -1.08706e-19)
(1.05661 1.16105 1.24583e-19)
(1.00189 1.12988 -8.7891e-19)
(0.936571 1.10154 5.95551e-20)
(0.863742 1.0677 4.10256e-19)
(0.778886 1.03146 0)
(0.678679 0.991413 -1.54882e-20)
(0.569507 0.947693 1.40893e-20)
(0.456966 0.905533 0)
(0.376703 0.876527 0)
(0.330697 1.00129 -3.74325e-19)
(0.299558 1.82649 -6.00832e-22)
(0.29515 2.92516 -1.31818e-19)
(0.313259 3.29639 2.1726e-19)
(0.286513 3.40028 7.98058e-20)
(0.21806 3.42661 7.23726e-20)
(0.191688 3.43518 -3.82612e-20)
(0.418159 0.451265 4.80272e-19)
(0.902378 0.943421 1.50209e-18)
(1.07119 1.15462 5.47313e-19)
(1.09204 1.18822 0)
(1.04654 1.18186 0)
(0.992062 1.1507 6.73361e-19)
(0.926834 1.12274 -4.16194e-19)
(0.854042 1.08956 -3.772e-19)
(0.769474 1.05514 -1.5019e-20)
(0.670512 1.01731 3.33729e-20)
(0.560737 0.978773 -2.68828e-19)
(0.456159 0.943926 0)
(0.379175 0.95474 0)
(0.34848 1.34098 -2.07445e-19)
(0.362321 2.43192 -2.71417e-19)
(0.404398 3.1984 0)
(0.431207 3.38565 4.73176e-20)
(0.360892 3.4518 2.08251e-19)
(0.284945 3.49664 -4.39367e-19)
(0.259616 3.52272 2.59188e-19)
(0.414974 0.460139 -9.09984e-19)
(0.89456 0.960131 -7.14663e-19)
(1.06043 1.1746 0)
(1.08111 1.20947 0)
(1.03573 1.20335 0)
(0.9816 1.17235 0)
(0.916743 1.14472 4.44527e-19)
(0.844646 1.11221 -4.87107e-19)
(0.760506 1.07833 0)
(0.660531 1.04223 -2.4542e-20)
(0.55138 1.00509 4.40669e-19)
(0.446541 0.976263 2.31614e-20)
(0.394849 1.06709 3.9987e-20)
(0.409337 1.71294 3.05194e-19)
(0.433947 2.87295 -9.04927e-20)
(0.469689 3.33077 0)
(0.451509 3.46349 -6.30765e-20)
(0.360365 3.55283 1.0108e-19)
(0.274535 3.62374 3.43504e-19)
(0.197895 3.6044 -2.9784e-19)
(0.41174 0.46917 4.31366e-19)
(0.886817 0.979569 -7.02656e-19)
(1.0493 1.19712 0)
(1.06949 1.23231 -1.7462e-19)
(1.02412 1.22583 6.63041e-19)
(0.970463 1.19453 0)
(0.906044 1.16703 0)
(0.834301 1.13479 9.11154e-19)
(0.750797 1.10262 1.50973e-20)
(0.652982 1.07008 -8.61247e-20)
(0.54242 1.04057 -1.85119e-19)
(0.453147 1.03273 1.47233e-19)
(0.418487 1.22818 0)
(0.451831 2.12644 -1.42869e-19)
(0.50107 3.13387 1.20646e-19)
(0.561011 3.4389 -3.6384e-20)
(0.555211 3.54456 0)
(0.484364 3.64241 -1.92784e-19)
(0.40722 3.68805 -7.55391e-19)