/*--------------------------------*- C++ -*----------------------------------*\
  =========                 |
  \\      /  F ield         | OpenFOAM: The Open Source CFD Toolbox
   \\    /   O peration     | Website:  https://openfoam.org
    \\  /    A nd           | Version:  10
     \\/     M anipulation  |
\*---------------------------------------------------------------------------*/
FoamFile
{
    format      ascii;
    class       volScalarField;
    location    "0.006";
    object      mag(U);
}
// * * * * * * * * * * * * * * * * * * * * * * * * * * * * * * * * * * * * * //

dimensions      [0 1 -1 0 0 0 0];

internalField   nonuniform List<scalar> 
1000
(
6.85603e-13
6.27254e-13
6.85603e-13
6.12667e-13
7.29365e-13
7.29365e-13
7.87714e-13
6.12667e-13
8.16889e-13
7.29365e-13
9.33587e-13
7.87714e-13
5.3973e-13
6.85603e-13
7.0019e-13
6.85603e-13
6.56429e-13
7.14778e-13
5.54317e-13
4.37619e-13
5.83492e-13
5.25143e-13
4.95968e-13
5.98079e-13
7.29365e-13
5.10556e-13
5.54317e-13
5.25143e-13
6.27254e-13
5.68905e-13
7.14778e-13
5.3973e-13
6.12667e-13
5.3973e-13
6.12667e-13
5.83492e-13
4.23032e-13
4.66794e-13
4.23032e-13
2.1881e-13
3.64683e-13
5.68905e-13
5.10556e-13
5.10556e-13
7.14778e-13
7.29365e-13
8.89825e-13
7.14778e-13
1.06487e-12
6.85603e-13
1.19616e-12
1.06487e-12
1.25451e-12
1.32744e-12
1.32744e-12
1.80883e-12
1.59002e-12
1.77965e-12
1.98387e-12
1.61919e-12
1.91094e-12
1.47332e-12
1.79424e-12
1.42956e-12
1.51708e-12
1.25451e-12
1.18157e-12
1.22533e-12
1.25451e-12
1.29827e-12
9.91936e-13
1.32744e-12
7.73127e-13
1.13781e-12
1.06487e-12
1.45873e-12
1.29827e-12
1.59002e-12
1.44414e-12
1.40038e-12
1.41497e-12
1.16698e-12
1.19616e-12
1.34203e-12
1.06487e-12
1.19616e-12
1.07946e-12
1.54625e-12
1.02111e-12
1.42956e-12
9.04413e-13
1.13781e-12
7.73127e-13
1.06487e-12
7.87714e-13
8.89825e-13
9.19e-13
9.91936e-13
1.12322e-12
1.06487e-12
1.23992e-12
1.31286e-12
1.25451e-12
1.6046e-12
1.32744e-12
1.82341e-12
1.53167e-12
2.27562e-12
2.04222e-12
2.42149e-12
2.10057e-12
2.30479e-12
2.11516e-12
2.21727e-12
2.37773e-12
2.12975e-12
1.9547e-12
2.20268e-12
2.02763e-12
2.23186e-12
1.89635e-12
2.37773e-12
2.11516e-12
2.39232e-12
2.46525e-12
2.61113e-12
2.8737e-12
2.96122e-12
3.06333e-12
3.19462e-12
3.54471e-12
2.96122e-12
3.48636e-12
3.07792e-12
3.35508e-12
3.41343e-12
3.34049e-12
3.71976e-12
3.39884e-12
3.51554e-12
3.39884e-12
3.38425e-12
3.99692e-12
3.61765e-12
4.20114e-12
3.58848e-12
4.31784e-12
3.35508e-12
3.74894e-12
3.48636e-12
3.26756e-12
3.25297e-12
3.09251e-12
2.93205e-12
2.88829e-12
2.93205e-12
2.34856e-12
2.50902e-12
2.29021e-12
2.20268e-12
2.01305e-12
1.89635e-12
2.1881e-12
1.77965e-12
1.9547e-12
1.61919e-12
1.86717e-12
1.88176e-12
1.79424e-12
1.89635e-12
1.70671e-12
2.04222e-12
1.77965e-12
1.98387e-12
1.77965e-12
1.75048e-12
1.61919e-12
1.40038e-12
1.42956e-12
1.32744e-12
1.18157e-12
1.18157e-12
1.07946e-12
9.33587e-13
9.77349e-13
1.12322e-12
9.19e-13
1.09405e-12
1.16698e-12
1.47332e-12
1.838e-12
2.62571e-12
4.12821e-12
6.76851e-12
1.17282e-11
2.01888e-11
3.51408e-11
6.09749e-11
1.05816e-10
1.82589e-10
3.13598e-10
5.37002e-10
9.14317e-10
1.55124e-09
2.61747e-09
4.39793e-09
7.35251e-09
1.22339e-08
2.02556e-08
3.33746e-08
5.47169e-08
8.92607e-08
1.44879e-07
2.33958e-07
3.7587e-07
6.00736e-07
9.55112e-07
1.51052e-06
2.37619e-06
3.71787e-06
5.78549e-06
8.95362e-06
1.37798e-05
2.10888e-05
3.2092e-05
4.85573e-05
7.30462e-05
0.000109245
0.000162418
0.000240033
0.000352601
0.000514805
0.000746997
0.00107716
0.00154347
0.00219756
0.00310867
0.00436885
0.00609938
0.00845857
0.0116511
0.015939
0.0216543
0.0292136
0.0391333
0.0520473
0.0687238
0.090083
0.117213
0.151385
0.194062
0.246905
0.31177
0.390703
0.48592
0.59978
0.734748
0.893355
1.07814
1.29161
1.53614
1.81399
2.12716
2.47741
2.8662
3.29465
3.76354
4.2733
4.82401
5.41544
6.04702
6.71796
7.42719
8.17347
8.9554
9.77144
10.62
11.4995
12.4082
13.3444
14.3066
15.2931
16.3025
17.3333
18.384
19.4534
20.5403
21.6434
22.7617
23.8942
25.0399
26.1981
27.3678
28.5484
29.7392
30.9395
32.1488
33.3665
34.5921
35.8252
37.0653
38.3121
39.5652
40.8242
42.0889
43.3588
44.6339
45.9137
47.1981
48.4868
49.7796
51.0763
52.3768
53.6808
54.9881
56.2987
57.6123
58.9289
60.2482
61.5701
62.8946
64.2214
65.5506
66.8819
68.2153
69.5506
70.8879
72.2269
73.5677
74.9101
76.2541
77.5995
78.9464
80.2946
81.6441
82.9949
84.3469
85.6999
87.0541
88.4093
89.7655
91.1226
92.4806
93.8394
95.1991
96.5596
97.9208
99.2827
100.645
102.009
103.372
104.737
106.102
107.467
108.833
110.2
111.567
112.934
114.302
115.67
117.039
118.408
119.777
121.147
122.517
123.887
125.258
126.628
127.999
129.37
130.742
132.113
133.485
134.856
136.228
137.6
138.973
140.345
141.717
143.089
144.462
145.834
147.207
148.579
149.952
151.324
152.696
154.069
155.441
156.813
158.185
159.557
160.929
162.301
163.673
165.044
166.416
167.786
169.158
170.528
171.899
173.269
174.639
176.008
177.378
178.747
180.116
181.484
182.852
184.22
185.587
186.954
188.32
189.686
191.051
192.416
193.781
195.144
196.508
197.87
199.232
200.593
201.954
203.313
204.672
206.031
207.388
208.744
210.1
211.454
212.807
214.16
215.511
216.861
218.209
219.557
220.903
222.247
223.59
224.931
226.271
227.609
228.945
230.278
231.61
232.94
234.267
235.592
236.914
238.233
239.549
240.862
242.172
243.479
244.781
246.08
247.374
248.664
249.95
251.23
252.505
253.774
255.037
256.293
257.543
258.785
260.019
261.244
262.461
263.668
264.864
266.05
267.224
268.385
269.532
270.665
271.783
272.884
273.968
275.032
276.077
277.101
278.102
279.079
280.031
280.955
281.852
282.718
283.554
284.357
285.125
285.859
286.555
287.215
287.836
288.417
288.96
289.462
289.925
290.349
290.734
291.082
291.393
291.67
291.914
292.127
292.312
292.47
292.605
292.718
292.812
292.89
292.953
293.004
293.045
293.078
293.103
293.122
293.137
293.149
293.157
293.164
293.169
293.172
293.175
293.177
293.179
293.18
293.181
293.182
293.183
293.184
293.184
293.185
293.185
293.185
293.185
293.185
293.185
293.186
293.186
293.186
293.187
293.187
293.187
293.187
293.188
293.188
293.188
293.189
293.189
293.189
293.19
293.19
293.19
293.191
293.191
293.191
293.191
293.192
293.192
293.192
293.192
293.193
293.193
293.193
293.193
293.193
293.193
293.194
293.194
293.194
293.194
293.194
293.194
293.194
293.194
293.195
293.195
293.195
293.195
293.195
293.195
293.195
293.196
293.196
293.196
293.196
293.196
293.196
293.196
293.196
293.196
293.197
293.197
293.197
293.197
293.197
293.197
293.197
293.197
293.197
293.197
293.197
293.197
293.197
293.196
293.196
293.196
293.195
293.195
293.194
293.194
293.194
293.193
293.193
293.193
293.193
293.193
293.193
293.193
293.193
293.193
293.193
293.193
293.193
293.193
293.193
293.193
293.193
293.193
293.193
293.193
293.193
293.193
293.193
293.193
293.193
293.193
293.193
293.193
293.193
293.193
293.193
293.193
293.193
293.193
293.193
293.192
293.192
293.192
293.192
293.192
293.192
293.192
293.192
293.192
293.192
293.192
293.192
293.192
293.191
293.19
293.189
293.187
293.184
293.179
293.174
293.169
293.163
293.157
293.152
293.148
293.145
293.145
293.145
293.147
293.151
293.156
293.161
293.166
293.171
293.175
293.179
293.182
293.184
293.186
293.188
293.189
293.19
293.19
293.19
293.191
293.191
293.191
293.19
293.19
293.19
293.19
293.19
293.19
293.19
293.19
293.189
293.189
293.189
293.19
293.19
293.19
293.19
293.19
293.189
293.189
293.189
293.189
293.189
293.189
293.188
293.188
293.188
293.188
293.187
293.187
293.187
293.187
293.187
293.187
293.187
293.187
293.187
293.187
293.187
293.186
293.186
293.186
293.186
293.186
293.185
293.185
293.185
293.184
293.184
293.184
293.184
293.183
293.183
293.183
293.183
293.183
293.183
293.183
293.183
293.183
293.183
293.183
293.183
293.182
293.182
293.182
293.181
293.181
293.18
293.18
293.179
293.179
293.179
293.179
293.179
293.179
293.179
293.179
293.179
293.179
293.179
293.179
293.178
293.178
293.177
293.177
293.176
293.176
293.175
293.174
293.174
293.173
293.173
293.173
293.173
293.172
293.172
293.172
293.172
293.172
293.172
293.172
293.171
293.171
293.17
293.17
293.169
293.168
293.168
293.167
293.166
293.165
293.165
293.164
293.163
293.163
293.162
293.162
293.162
293.162
293.161
293.16
293.16
293.159
293.158
293.152
293.143
293.126
293.097
293.034
292.899
292.636
292.132
291.067
288.616
283.022
270.112
240.892
185.788
112.274
49.9246
16.988
4.88855
1.2824
0.323421
0.0805767
0.0200119
0.00496646
0.00123235
0.000305779
7.58714e-05
1.88255e-05
4.67109e-06
1.15901e-06
2.8758e-07
7.13564e-08
1.77043e-08
4.39316e-09
1.08897e-09
2.70639e-10
6.6241e-11
1.69213e-11
3.61766e-12
1.40038e-12
1.31286e-13
7.14779e-13
1.45873e-13
5.25144e-13
3.66379e-26
2.91746e-13
1.16699e-13
8.75239e-14
1.45873e-14
1.02111e-13
3.7927e-13
2.47984e-13
3.7927e-13
4.23032e-13
4.66794e-13
4.66794e-13
5.10556e-13
4.81382e-13
3.35508e-13
6.41842e-13
3.64683e-13
7.14779e-13
1.89635e-13
5.10556e-13
3.93858e-13
2.91746e-13
3.7927e-13
5.68906e-13
5.54318e-13
4.08445e-13
3.20921e-13
4.52207e-13
2.04222e-13
4.95969e-13
1.31286e-13
2.91746e-13
1.45873e-13
1.31286e-13
1.45873e-14
2.04222e-13
8.75239e-14
1.16699e-13
1.02111e-13
7.29366e-14
2.91746e-14
1.60461e-13
1.89635e-13
8.75239e-14
9.4413e-27
2.91746e-14
1.75048e-13
1.31286e-13
3.35508e-13
1.45873e-14
7.29366e-14
1.02111e-13
1.45873e-14
1.45873e-13
2.04222e-13
1.75048e-13
2.91746e-14
1.16699e-13
1.60461e-13
1.31286e-13
2.04222e-13
7.29366e-14
2.77159e-13
1.45873e-13
8.75239e-14
1.45873e-14
3.35508e-13
2.91746e-14
1.45873e-13
1.16699e-13
4.3762e-14
1.45873e-13
9.10661e-27
1.02111e-13
1.60461e-13
1.31286e-13
1.75048e-13
2.33397e-13
1.89635e-13
3.50096e-13
2.33397e-13
2.04222e-13
2.04222e-13
1.60461e-13
1.45873e-14
1.89635e-13
1.16699e-13
5.83493e-14
1.02111e-13
7.29366e-14
1.16699e-13
2.1881e-13
5.9808e-13
6.71017e-13
1.06487e-12
1.12322e-12
1.21075e-12
1.2691e-12
1.59002e-12
1.57543e-12
1.47332e-12
1.86718e-12
1.63378e-12
1.67754e-12
1.44414e-12
1.32745e-12
1.18157e-12
1.2691e-12
1.16699e-12
1.2691e-12
1.12322e-12
1.35662e-12
9.77351e-13
1.18157e-12
8.75239e-13
1.13781e-12
9.77351e-13
1.19616e-12
8.89827e-13
8.02303e-13
6.56429e-13
5.83493e-13
7.00191e-13
5.68906e-13
8.1689e-13
5.54318e-13
8.60652e-13
5.54318e-13
4.95969e-13
5.25144e-13
7.58541e-13
3.06334e-13
6.85604e-13
3.7927e-13
5.68906e-13
3.50096e-13
4.23032e-13
2.33397e-13
2.62572e-13
)
;

boundaryField
{
    sides
    {
        type            calculated;
        value           nonuniform List<scalar> 2(2.62572e-13 6.85603e-13);
    }
    empty
    {
        type            empty;
    }
}


// ************************************************************************* //
