/*--------------------------------*- C++ -*----------------------------------*\
  =========                 |
  \\      /  F ield         | OpenFOAM: The Open Source CFD Toolbox
   \\    /   O peration     | Website:  https://openfoam.org
    \\  /    A nd           | Version:  10
     \\/     M anipulation  |
\*---------------------------------------------------------------------------*/
FoamFile
{
    format      ascii;
    class       surfaceScalarField;
    location    "0.006";
    object      phi;
}
// * * * * * * * * * * * * * * * * * * * * * * * * * * * * * * * * * * * * * //

dimensions      [1 0 -1 0 0 0 0];

internalField   nonuniform List<scalar> 
999
(
2.72848e-12
2.50111e-12
2.84217e-12
2.6148e-12
3.12639e-12
2.78533e-12
2.72848e-12
3.06954e-12
3.35376e-12
3.35376e-12
3.18323e-12
2.78533e-12
2.21689e-12
2.95586e-12
2.78533e-12
3.0127e-12
2.33058e-12
2.78533e-12
2.16005e-12
2.04636e-12
2.10321e-12
2.44427e-12
1.93268e-12
2.33058e-12
2.44427e-12
2.33058e-12
2.16005e-12
2.33058e-12
2.27374e-12
2.33058e-12
2.55795e-12
2.33058e-12
2.10321e-12
2.27374e-12
2.50111e-12
1.93268e-12
1.87583e-12
1.7053e-12
1.36424e-12
1.36424e-12
1.81899e-12
2.10321e-12
2.10321e-12
2.50111e-12
3.06954e-12
3.18323e-12
3.35376e-12
3.29692e-12
3.58114e-12
3.69482e-12
4.26326e-12
4.37694e-12
5.00222e-12
5.34328e-12
6.19593e-12
6.76437e-12
7.16227e-12
7.16227e-12
7.50333e-12
7.27596e-12
6.59384e-12
6.70752e-12
6.48015e-12
6.0254e-12
5.40012e-12
4.94538e-12
4.83169e-12
5.11591e-12
5.00222e-12
5.00222e-12
4.49063e-12
4.49063e-12
3.86535e-12
4.37694e-12
5.00222e-12
5.91172e-12
5.6275e-12
5.68434e-12
5.79803e-12
5.51381e-12
5.05906e-12
4.77485e-12
4.83169e-12
4.83169e-12
4.37694e-12
4.60432e-12
5.51381e-12
5.17275e-12
5.00222e-12
4.83169e-12
3.9222e-12
3.80851e-12
3.46745e-12
3.58114e-12
3.18323e-12
3.69482e-12
3.80851e-12
3.86535e-12
4.43379e-12
4.83169e-12
4.94538e-12
5.6275e-12
5.40012e-12
6.08225e-12
6.42331e-12
6.70752e-12
7.90124e-12
8.58336e-12
8.75389e-12
8.86757e-12
8.6402e-12
8.86757e-12
8.75389e-12
9.0381e-12
8.81073e-12
8.12861e-12
8.52651e-12
8.46967e-12
8.35598e-12
8.52651e-12
8.69704e-12
8.46967e-12
8.98126e-12
9.54969e-12
1.00044e-11
1.09708e-11
1.13687e-11
1.18803e-11
1.24487e-11
1.31308e-11
1.3415e-11
1.31877e-11
1.31308e-11
1.29603e-11
1.34719e-11
1.39266e-11
1.42109e-11
1.39835e-11
1.4154e-11
1.3415e-11
1.37561e-11
1.4154e-11
1.49498e-11
1.58593e-11
1.60298e-11
1.58593e-11
1.55183e-11
1.48361e-11
1.40403e-11
1.31877e-11
1.3074e-11
1.24487e-11
1.18234e-11
1.21076e-11
1.18234e-11
1.06297e-11
1.01181e-11
9.54969e-12
8.75389e-12
8.52651e-12
8.12861e-12
8.35598e-12
8.07177e-12
7.21911e-12
7.61702e-12
6.99174e-12
7.44649e-12
7.10543e-12
7.44649e-12
7.21911e-12
7.38964e-12
7.56017e-12
7.61702e-12
7.38964e-12
6.70752e-12
7.04858e-12
5.96856e-12
5.45697e-12
5.40012e-12
4.88853e-12
5.00222e-12
4.49063e-12
4.03588e-12
3.9222e-12
3.9222e-12
4.43379e-12
4.14957e-12
4.14957e-12
5.22959e-12
6.13909e-12
8.52651e-12
1.27329e-11
2.05773e-11
3.47313e-11
6.00835e-11
1.0391e-10
1.80535e-10
3.13662e-10
5.43139e-10
9.34847e-10
1.60401e-09
2.73928e-09
4.65803e-09
7.88305e-09
1.32785e-08
2.22615e-08
3.71414e-08
6.16668e-08
1.01888e-07
1.67515e-07
2.74044e-07
4.46074e-07
7.22422e-07
1.164e-06
1.86583e-06
2.97527e-06
4.71949e-06
7.44657e-06
1.16866e-05
1.82417e-05
2.83184e-05
4.3719e-05
6.71192e-05
0.000102465
0.000155535
0.000234736
0.000352212
0.000525382
0.000779048
0.00114827
0.00168222
0.00244938
0.00354429
0.00509653
0.00728215
0.0103384
0.0145821
0.0204329
0.0284413
0.0393227
0.0539978
0.0736403
0.0997299
0.134113
0.179069
0.237376
0.312384
0.408082
0.529153
0.68103
0.869919
1.10281
1.38744
1.73226
2.14633
2.63917
3.22059
3.90052
4.68875
5.59469
6.62714
7.79402
9.10221
10.5573
12.1636
13.9237
15.8391
17.9093
20.1328
22.5065
25.0262
27.6868
30.4821
33.4053
36.4492
39.606
42.8679
46.227
49.6754
53.2056
56.8099
60.4813
64.2128
67.998
71.8307
75.7051
79.616
83.5583
87.5273
91.5188
95.5289
99.5538
103.59
107.635
111.686
115.74
119.794
123.847
127.896
131.94
135.977
140.005
144.023
148.03
152.025
156.005
159.971
163.922
167.855
171.771
175.669
179.549
183.408
187.247
191.066
194.863
198.639
202.392
206.122
209.829
213.513
217.173
220.809
224.42
228.007
231.569
235.105
238.617
242.102
245.562
248.996
252.404
255.786
259.141
262.47
265.773
269.049
272.298
275.521
278.717
281.886
285.029
288.145
291.234
294.297
297.332
300.341
303.323
306.279
309.207
312.11
314.985
317.834
320.657
323.453
326.222
328.966
331.683
334.374
337.039
339.677
342.29
344.877
347.438
349.973
352.483
354.967
357.425
359.858
362.266
364.649
367.006
369.338
371.646
373.929
376.186
378.42
380.628
382.813
384.973
387.108
389.22
391.308
393.371
395.411
397.427
399.42
401.389
403.335
405.256
407.157
409.03
410.888
412.711
414.529
416.301
418.079
419.803
421.535
423.222
424.894
426.559
428.164
429.804
431.359
432.945
434.482
435.996
437.514
438.978
440.443
441.885
443.293
444.697
446.072
447.423
448.764
450.077
451.37
452.648
453.902
455.136
456.354
457.549
458.725
459.883
461.021
462.14
463.239
464.321
465.383
466.425
467.451
468.457
469.444
470.414
471.365
472.298
473.213
474.11
474.989
475.851
476.695
477.521
478.33
479.122
479.896
480.653
481.394
482.117
482.823
483.512
484.185
484.841
485.481
486.104
486.711
487.302
487.876
488.435
488.977
489.504
490.015
490.51
490.989
491.453
491.901
492.334
492.752
493.154
493.542
493.914
494.271
494.614
494.942
495.255
495.554
495.839
496.109
496.366
496.608
496.837
497.052
497.254
497.443
497.619
497.782
497.933
498.072
498.199
498.315
498.421
498.515
498.6
498.675
498.742
498.8
498.85
498.893
498.929
498.959
498.984
499.003
499.019
499.031
499.04
499.046
499.05
499.052
499.052
499.052
499.05
499.048
499.045
499.043
499.039
499.036
499.033
499.029
499.026
499.023
499.019
499.016
499.012
499.009
499.006
499.002
498.999
498.995
498.992
498.988
498.984
498.98
498.977
498.973
498.969
498.965
498.961
498.957
498.953
498.949
498.945
498.941
498.936
498.932
498.928
498.923
498.918
498.914
498.909
498.904
498.899
498.894
498.889
498.884
498.878
498.873
498.868
498.862
498.856
498.851
498.845
498.839
498.833
498.827
498.82
498.814
498.808
498.801
498.794
498.787
498.78
498.773
498.766
498.759
498.751
498.743
498.736
498.728
498.72
498.711
498.703
498.694
498.684
498.677
498.666
498.657
498.648
498.638
498.627
498.617
498.607
498.596
498.584
498.573
498.562
498.55
498.537
498.525
498.512
498.499
498.485
498.471
498.457
498.442
498.427
498.411
498.395
498.378
498.361
498.343
498.325
498.307
498.287
498.268
498.247
498.226
498.204
498.181
498.158
498.133
498.108
498.082
498.054
498.026
497.996
497.965
497.932
497.899
497.863
497.826
497.788
497.747
497.704
497.66
497.612
497.563
497.51
497.455
497.396
497.333
497.265
497.193
497.117
497.036
496.949
496.853
496.747
496.627
496.495
496.356
496.217
496.086
495.968
495.857
495.734
495.56
495.269
494.773
493.962
492.706
490.869
488.314
484.919
480.589
475.262
468.924
461.606
453.389
444.4
434.803
424.789
414.561
404.325
394.273
384.578
375.385
366.808
358.926
351.786
345.408
339.783
334.886
330.673
327.092
324.081
321.578
319.519
317.845
316.496
315.422
314.574
313.912
313.401
313.009
312.712
312.489
312.323
312.2
312.111
312.046
311.999
311.965
311.94
311.923
311.91
311.9
311.893
311.887
311.883
311.879
311.875
311.872
311.869
311.866
311.863
311.861
311.859
311.856
311.854
311.853
311.851
311.85
311.848
311.847
311.846
311.845
311.844
311.844
311.843
311.842
311.841
311.841
311.84
311.84
311.839
311.838
311.838
311.837
311.837
311.836
311.836
311.836
311.835
311.835
311.835
311.834
311.834
311.833
311.833
311.833
311.832
311.832
311.831
311.831
311.83
311.83
311.829
311.829
311.828
311.828
311.827
311.827
311.826
311.825
311.825
311.824
311.824
311.824
311.823
311.823
311.822
311.821
311.821
311.82
311.819
311.819
311.818
311.817
311.816
311.816
311.815
311.814
311.813
311.813
311.812
311.811
311.81
311.81
311.809
311.809
311.808
311.807
311.806
311.805
311.805
311.804
311.803
311.802
311.801
311.8
311.799
311.798
311.797
311.796
311.795
311.794
311.793
311.792
311.791
311.79
311.788
311.787
311.785
311.784
311.782
311.779
311.773
311.762
311.742
311.701
311.623
311.467
311.157
310.516
309.196
306.19
299.264
282.885
246.275
181.628
106.868
47.8814
16.4123
4.61749
1.18499
0.295971
0.0735015
0.0182377
0.00452499
0.00112273
0.000278574
6.91208e-05
1.71505e-05
4.25547e-06
1.05589e-06
2.61993e-07
6.5007e-08
1.61298e-08
4.00207e-09
9.9282e-10
2.46217e-10
6.10001e-11
1.50564e-11
3.70193e-12
9.23706e-13
2.06057e-13
1.06581e-13
1.42109e-13
1.13687e-13
1.20792e-13
7.10543e-14
1.13687e-13
1.42109e-14
-4.26326e-14
0
4.26326e-14
7.10543e-14
7.10543e-15
7.10543e-15
0
1.42109e-14
-7.10543e-15
2.84217e-14
-6.39488e-14
-7.81597e-14
-7.81597e-14
-9.9476e-14
-1.13687e-13
-8.52651e-14
-2.84217e-14
4.9738e-14
7.10543e-15
-2.84217e-14
-1.42109e-14
7.10543e-14
-4.26326e-14
-3.55271e-14
-7.10543e-14
-6.39488e-14
-1.35003e-13
-7.10543e-15
-4.9738e-14
-7.10543e-15
-2.13163e-14
-2.84217e-14
-4.26326e-14
-2.13163e-14
7.10543e-15
1.42109e-14
-4.26326e-14
2.13163e-14
7.10543e-15
-9.9476e-14
-3.55271e-14
0
7.10543e-14
7.10543e-14
1.06581e-13
1.20792e-13
7.10543e-15
-7.10543e-15
-4.9738e-14
-4.26326e-14
-7.81597e-14
-1.13687e-13
-2.84217e-14
4.26326e-14
8.52651e-14
7.81597e-14
8.52651e-14
7.10543e-14
7.10543e-14
1.20792e-13
5.68434e-14
4.9738e-14
8.52651e-14
8.52651e-14
3.55271e-14
0
-7.10543e-15
-4.26326e-14
-2.84217e-14
1.42109e-14
-7.10543e-15
0
-3.55271e-14
-6.39488e-14
-1.42109e-14
-3.55271e-14
-2.13163e-14
-7.10543e-15
0
2.13163e-14
-5.68434e-14
-4.9738e-14
-8.52651e-14
-4.26326e-14
2.13163e-14
5.68434e-14
-1.42109e-14
-9.9476e-14
-1.91847e-13
-3.2685e-13
-4.47642e-13
-5.25802e-13
-6.11067e-13
-6.32383e-13
-7.31859e-13
-7.38964e-13
-7.95808e-13
-8.3844e-13
-8.88178e-13
-8.31335e-13
-7.74492e-13
-6.6791e-13
-6.32383e-13
-6.18172e-13
-6.39488e-13
-5.96856e-13
-5.68434e-13
-6.03961e-13
-6.25278e-13
-5.7554e-13
-5.04485e-13
-5.40012e-13
-5.18696e-13
-5.8975e-13
-5.18696e-13
-4.47642e-13
-3.83693e-13
-3.19744e-13
-3.05533e-13
-2.91323e-13
-3.76588e-13
-3.69482e-13
-3.33955e-13
-3.33955e-13
-2.55795e-13
-2.91323e-13
-3.19744e-13
-2.4869e-13
-2.41585e-13
-2.91323e-13
-2.41585e-13
-2.13163e-13
-1.84741e-13
-1.84741e-13
-1.42109e-13
)
;

boundaryField
{
    sides
    {
        type            calculated;
        value           nonuniform List<scalar> 2(-1.30967e-13 -2.73576e-12);
    }
    empty
    {
        type            empty;
        value           nonuniform List<scalar> 0();
    }
}


// ************************************************************************* //
