/*--------------------------------*- C++ -*----------------------------------*\
| =========                 |                                                 |
| \\      /  F ield         | OpenFOAM: The Open Source CFD Toolbox           |
|  \\    /   O peration     | Version:  v2012                                 |
|   \\  /    A nd           | Website:  www.openfoam.com                      |
|    \\/     M anipulation  |                                                 |
\*---------------------------------------------------------------------------*/
FoamFile
{
    version     2.0;
    format      ascii;
    class       volScalarField;
    location    "34";
    object      p;
}
// * * * * * * * * * * * * * * * * * * * * * * * * * * * * * * * * * * * * * //

dimensions      [0 2 -2 0 0 0 0];


internalField   nonuniform List<scalar> 
2200
(
1.06606
1.04456
1.02865
1.01298
0.998359
0.985829
0.975454
0.967316
0.961563
0.958548
0.958926
0.962638
0.968905
0.977405
0.988035
1.00076
1.01552
1.03136
1.04736
1.06887
0.998508
0.995248
0.99232
0.988192
0.982715
0.976225
0.969586
0.96361
0.95906
0.956589
0.956978
0.960177
0.965264
0.971645
0.978575
0.985282
0.990909
0.995044
0.997943
1.00127
0.958591
0.958809
0.96086
0.9622
0.96259
0.961724
0.959723
0.957016
0.954436
0.952878
0.953333
0.955664
0.958833
0.961976
0.964261
0.965257
0.964959
0.963884
0.962129
0.961889
0.936138
0.937582
0.940187
0.942648
0.94507
0.947069
0.948202
0.94838
0.947939
0.947545
0.948059
0.949319
0.950428
0.950751
0.949995
0.948285
0.946097
0.94384
0.941234
0.939821
0.92191
0.923888
0.926692
0.929496
0.932322
0.935117
0.937533
0.939351
0.940501
0.941176
0.941763
0.942119
0.941757
0.940542
0.938607
0.936169
0.933572
0.930834
0.928052
0.926117
0.914576
0.916173
0.918367
0.920893
0.923556
0.926203
0.928749
0.931125
0.933074
0.934475
0.93517
0.935011
0.934024
0.932366
0.930367
0.928121
0.92573
0.923353
0.921235
0.919659
0.911243
0.912259
0.913525
0.915391
0.91753
0.919666
0.921802
0.924005
0.926114
0.927821
0.928657
0.92845
0.927512
0.926177
0.924672
0.923026
0.921243
0.919608
0.918461
0.917448
0.908811
0.909483
0.910113
0.911405
0.912999
0.914643
0.91632
0.918117
0.920002
0.921747
0.922763
0.922852
0.92236
0.921602
0.920688
0.91963
0.918477
0.917486
0.917002
0.916327
0.905724
0.906171
0.906573
0.907581
0.908847
0.910224
0.911681
0.913254
0.914944
0.916654
0.917898
0.918432
0.918449
0.91817
0.917679
0.917009
0.916272
0.915612
0.915368
0.914912
0.901837
0.90212
0.9025
0.903424
0.904592
0.9059
0.907343
0.90891
0.910592
0.912364
0.913892
0.914841
0.915266
0.915301
0.915062
0.91464
0.914109
0.913609
0.913402
0.913103
0.89749
0.897673
0.898072
0.898973
0.900149
0.901529
0.903072
0.90475
0.906547
0.908502
0.910378
0.911767
0.912539
0.912833
0.912758
0.91246
0.912058
0.911663
0.911469
0.911269
0.8928
0.89293
0.893309
0.894168
0.895388
0.8969
0.898664
0.900638
0.902793
0.905148
0.907482
0.909282
0.910324
0.910752
0.91077
0.910564
0.910282
0.910012
0.909853
0.909704
0.887704
0.887784
0.888163
0.889015
0.890278
0.891909
0.893917
0.896295
0.899029
0.90204
0.904905
0.906958
0.908163
0.908735
0.90894
0.908949
0.908832
0.908684
0.90857
0.908454
0.882199
0.882244
0.882621
0.883516
0.884873
0.88661
0.888749
0.891368
0.894569
0.898237
0.901741
0.904295
0.905919
0.906949
0.907575
0.907789
0.907829
0.907795
0.907737
0.90766
0.876537
0.876467
0.876898
0.877783
0.879247
0.881103
0.88336
0.88615
0.889641
0.893876
0.898231
0.901757
0.904234
0.905922
0.906984
0.907497
0.907754
0.907836
0.907822
0.907769
0.870624
0.870555
0.87092
0.871876
0.873465
0.875555
0.878141
0.881352
0.885373
0.890346
0.895716
0.900287
0.903599
0.905864
0.907312
0.908222
0.908734
0.908957
0.909004
0.908958
0.864113
0.864113
0.864445
0.865445
0.867316
0.869737
0.872865
0.876859
0.881855
0.887982
0.894557
0.900081
0.904057
0.90684
0.908759
0.910045
0.910789
0.911171
0.911281
0.911231
0.85661
0.856559
0.857008
0.858236
0.860298
0.863062
0.866778
0.871625
0.877809
0.885447
0.893547
0.900278
0.905176
0.908685
0.911187
0.912854
0.913869
0.914436
0.914624
0.914568
0.847899
0.847804
0.848305
0.849641
0.851927
0.855098
0.859403
0.865106
0.872554
0.881906
0.891945
0.900391
0.906649
0.9112
0.914455
0.916695
0.918156
0.918953
0.919218
0.919138
0.837171
0.83708
0.837642
0.839177
0.841867
0.845665
0.850861
0.857803
0.866839
0.87824
0.890566
0.900986
0.908771
0.914547
0.918731
0.921686
0.923648
0.924689
0.925032
0.924919
0.824092
0.823979
0.824666
0.82655
0.829859
0.834652
0.841256
0.850009
0.861338
0.875377
0.890301
0.902829
0.912223
0.919193
0.924309
0.92799
0.930457
0.931739
0.932143
0.931991
0.807642
0.807567
0.808556
0.811005
0.815308
0.821526
0.829995
0.841233
0.855528
0.872813
0.89081
0.905747
0.916913
0.925238
0.931353
0.93572
0.938658
0.940146
0.940606
0.940421
0.786792
0.786652
0.787977
0.791326
0.79705
0.805332
0.816514
0.830973
0.848905
0.870098
0.891723
0.909487
0.922668
0.932532
0.939781
0.945016
0.948488
0.950204
0.95072
0.950483
0.759197
0.759271
0.761433
0.766186
0.774252
0.785729
0.80065
0.819309
0.841678
0.867406
0.893118
0.914066
0.929574
0.941166
0.949772
0.955989
0.960035
0.961983
0.962534
0.962242
0.722194
0.722516
0.726228
0.734052
0.746103
0.762392
0.782585
0.806664
0.834422
0.865387
0.895639
0.919948
0.937868
0.951281
0.961284
0.968558
0.97322
0.975429
0.976022
0.975634
0.672852
0.673317
0.680496
0.693484
0.712035
0.735531
0.762716
0.793487
0.82756
0.864397
0.899457
0.927246
0.947691
0.963019
0.97452
0.982841
0.988083
0.990398
0.990892
0.990456
0.607157
0.610138
0.625618
0.64718
0.674554
0.706563
0.74178
0.780079
0.821206
0.864597
0.905154
0.937168
0.960892
0.978763
0.99225
1.00223
1.00862
1.01123
1.01155
1.01131
0.53207
0.541927
0.567831
0.599363
0.636669
0.677573
0.720797
0.766852
0.815427
0.865897
0.91273
0.949799
0.977429
0.998589
1.01489
1.02694
1.03483
1.03782
1.03812
1.03836
0.465639
0.480935
0.513374
0.553215
0.599736
0.649331
0.700618
0.754472
0.810375
0.867702
0.92037
0.962014
0.993169
1.017
1.03518
1.04882
1.05769
1.06198
1.06306
1.06303
0.415397
0.429036
0.466796
0.512486
0.566095
0.622897
0.68158
0.742738
0.805511
0.869385
0.927821
0.973684
1.0077
1.0335
1.05345
1.06864
1.07813
1.0826
1.08362
1.08371
0.374196
0.386889
0.428011
0.477553
0.536456
0.598958
0.663964
0.731569
0.800669
0.870782
0.934504
0.983905
1.02034
1.04791
1.06878
1.08459
1.09462
1.09928
1.1005
1.10061
0.338713
0.351698
0.395208
0.44752
0.510464
0.577506
0.647783
0.720938
0.795735
0.871457
0.939766
0.992459
1.03085
1.05947
1.08096
1.09695
1.10735
1.1124
1.11382
1.11394
0.307676
0.320793
0.366286
0.42104
0.487345
0.558153
0.632856
0.710797
0.790611
0.871403
0.944053
0.999478
1.03936
1.06887
1.09074
1.10696
1.11796
1.12327
1.12488
1.125
0.279765
0.292972
0.340085
0.397048
0.466275
0.540313
0.618835
0.700921
0.785193
0.870584
0.947031
1.00502
1.04638
1.07666
1.09929
1.11567
1.12707
1.13253
1.13422
1.13421
0.254235
0.267446
0.315792
0.374865
0.446705
0.523538
0.605321
0.690978
0.779181
0.868579
0.948911
1.00967
1.05252
1.08377
1.10678
1.1235
1.13463
1.14019
1.14183
1.14162
0.230182
0.243696
0.292909
0.354036
0.428164
0.507422
0.592013
0.680827
0.77265
0.866261
0.95069
1.01389
1.05838
1.09036
1.11367
1.13049
1.14136
1.14691
1.14854
1.14842
0.207567
0.221189
0.271209
0.334164
0.410268
0.491702
0.578824
0.670536
0.765799
0.863197
0.950772
1.01711
1.06371
1.09664
1.12029
1.13708
1.14804
1.15336
1.15508
1.155
0.186186
0.199815
0.250518
0.314995
0.392796
0.476233
0.565666
0.659959
0.758094
0.85865
0.95052
1.02055
1.06892
1.10295
1.12703
1.14383
1.15465
1.15992
1.16146
1.1614
0.165541
0.179398
0.230605
0.296373
0.375647
0.460895
0.552392
0.648959
0.74978
0.854025
0.950231
1.02308
1.07409
1.10964
1.13405
1.15085
1.16148
1.16644
1.16795
1.16783
0.145222
0.159725
0.211302
0.278176
0.358703
0.445577
0.538955
0.637659
0.741163
0.848685
0.94814
1.02491
1.07902
1.11622
1.14158
1.15828
1.16841
1.17313
1.17432
1.17417
0.125215
0.140525
0.19248
0.260363
0.341967
0.430277
0.525369
0.626064
0.731898
0.842172
0.945436
1.02634
1.08346
1.1233
1.14984
1.16641
1.17572
1.17962
1.18049
1.18028
0.105674
0.121726
0.174117
0.242941
0.325461
0.415006
0.511615
0.614087
0.721984
0.834889
0.941599
1.02617
1.08757
1.13065
1.15911
1.1757
1.18357
1.18605
1.18621
1.18605
0.0867257
0.103325
0.156215
0.225929
0.309254
0.399842
0.497741
0.601762
0.711502
0.826721
0.936395
1.02521
1.09093
1.13814
1.16953
1.18704
1.19318
1.19189
1.19112
1.1918
0.0684098
0.0854182
0.138831
0.209377
0.293419
0.384874
0.483821
0.589151
0.700516
0.817649
0.929834
1.02262
1.09317
1.14535
1.18111
1.20093
1.20628
1.20071
1.19523
1.19319
0.0507391
0.0680851
0.12202
0.193333
0.278022
0.370189
0.469966
0.57633
0.689032
0.807768
0.92234
1.0187
1.09377
1.15181
1.19357
1.21809
1.22702
1.21538
1.21199
1.21653
0.0337198
0.0514044
0.105847
0.177849
0.263114
0.355863
0.456285
0.563441
0.677161
0.797372
0.913902
1.01261
1.09225
1.15637
1.20562
1.23798
1.25446
1.23002
1.18627
1.14575
0.01741
0.0353599
0.0902733
0.162849
0.248584
0.34177
0.442645
0.550341
0.664784
0.786137
0.904059
1.00481
1.08791
1.15786
1.21579
1.25948
1.29114
1.28771
1.3051
1.3582
0.00185942
0.0199116
0.0752101
0.148192
0.234243
0.32768
0.428774
0.536725
0.65157
0.77358
0.892387
0.994125
1.07915
1.15351
1.2159
1.26286
1.28766
1.27932
1.24487
1.25554
-0.0129054
0.0050781
0.0606917
0.133924
0.220156
0.313681
0.414804
0.522768
0.637664
0.759717
0.878529
0.980371
1.06514
1.13927
1.20071
1.24496
1.24361
1.19812
1.13836
1.12765
-0.0268838
-0.00912761
0.0467237
0.120042
0.20632
0.299768
0.400751
0.508486
0.622998
0.744526
0.862978
0.963664
1.04539
1.11362
1.16829
1.18525
1.15512
1.08372
1.01175
0.995198
-0.0401151
-0.0227039
0.0332867
0.106526
0.192715
0.285928
0.386603
0.493868
0.607635
0.728122
0.845127
0.943285
1.01926
1.07489
1.10496
1.09664
1.04664
0.947454
0.861526
0.842505
-0.0530588
-0.0360561
0.0199927
0.0930135
0.178992
0.271848
0.372069
0.478649
0.591358
0.710215
0.824876
0.919304
0.987879
1.02786
1.02381
0.991335
0.886377
0.76601
0.659935
0.635413
-0.0666133
-0.0499814
0.00613397
0.0788775
0.164582
0.257045
0.356721
0.462475
0.573918
0.690734
0.802273
0.891582
0.952851
0.970027
0.934922
0.850444
0.695849
0.54449
0.416969
0.391354
-0.0812953
-0.0648901
-0.00859765
0.0638906
0.149302
0.241384
0.340472
0.445295
0.555267
0.669551
0.777009
0.860571
0.91075
0.901099
0.845267
0.697456
0.4963
0.28256
0.102092
0.0554938
-0.0972005
-0.0808672
-0.024273
0.0480241
0.133179
0.224901
0.323366
0.427169
0.535494
0.646952
0.749401
0.827428
0.862775
0.82107
0.731775
0.541363
0.305609
0.0122497
-0.313607
-0.458267
-0.114403
-0.098012
-0.0409867
0.0312045
0.116161
0.207541
0.305354
0.408046
0.514592
0.622947
0.71969
0.791521
0.809712
0.735475
0.597288
0.386114
0.144607
-0.207862
-0.805811
-1.38351
-0.132953
-0.116397
-0.0588178
0.0133693
0.0982438
0.189325
0.286489
0.388042
0.492747
0.59792
0.688768
0.752647
0.753218
0.659277
0.46634
0.224239
0.0117207
-0.235016
-0.81152
-2.36986
-0.152842
-0.136121
-0.0778374
-0.00559065
0.0792633
0.170059
0.266545
0.366884
0.46963
0.57136
0.656363
0.711184
0.692442
0.598789
0.367462
0.119585
-0.0378219
-0.0850557
-0.0879704
-0.486184
-0.173977
-0.157249
-0.0982205
-0.0259744
0.0588522
0.149275
0.244939
0.34386
0.444305
0.542089
0.621667
0.666761
0.630936
0.550212
0.315295
0.100086
-0.0199309
-0.0326783
0.0167426
-0.0259483
-0.19632
-0.179656
-0.119938
-0.0478184
0.0369312
0.126864
0.221533
0.318812
0.416644
0.509996
0.584706
0.62049
0.577045
0.498719
0.279936
0.106059
0.0184899
0.0104849
-0.0371179
-0.0445711
-0.219777
-0.203051
-0.142922
-0.0711253
0.0135587
0.102837
0.196325
0.291723
0.386587
0.475295
0.54552
0.572096
0.528294
0.437647
0.252056
0.115414
0.0375924
0.0685982
0.0452905
0.0432932
-0.244204
-0.227143
-0.167078
-0.0957623
-0.011123
0.0772902
0.169403
0.262745
0.354365
0.438432
0.504303
0.520895
0.485609
0.369879
0.216456
0.121067
0.0688021
0.0296323
0.0523329
0.0447481
-0.269019
-0.251628
-0.192289
-0.121558
-0.0368479
0.050434
0.141027
0.232112
0.320158
0.399826
0.461846
0.4677
0.442325
0.304932
0.175555
0.107596
0.116969
0.0546751
0.0791927
0.0729847
-0.293707
-0.276174
-0.218315
-0.148027
-0.0633003
0.0225413
0.11152
0.200315
0.284383
0.359934
0.419084
0.416382
0.39263
0.251013
0.141766
0.0827275
0.112304
0.0788701
0.0772949
0.0764504
-0.317624
-0.30039
-0.244232
-0.174461
-0.0901154
-0.00592514
0.0813972
0.167765
0.247616
0.319181
0.376492
0.367254
0.336304
0.204669
0.120127
0.0767956
0.0596589
0.0715448
0.0670659
0.0702245
-0.340186
-0.323677
-0.269093
-0.199996
-0.116883
-0.0343962
0.051257
0.135274
0.210948
0.277985
0.334983
0.320324
0.278421
0.169511
0.105829
0.0792207
0.0329643
0.0691973
0.0631002
0.0708041
-0.360323
-0.344922
-0.29198
-0.223848
-0.14309
-0.0619844
0.0219221
0.103491
0.175464
0.236917
0.294143
0.274146
0.220615
0.142403
0.0976292
0.0937165
0.0295503
0.0860402
0.076244
0.0836
-0.376986
-0.363074
-0.312225
-0.245451
-0.167538
-0.0876975
-0.00568619
0.0734357
0.142346
0.197316
0.255234
0.229826
0.159696
0.122421
0.127557
0.169603
0.140078
0.119457
0.101935
0.099141
-0.388955
-0.376961
-0.328875
-0.264035
-0.188724
-0.110461
-0.0305519
0.0463596
0.113022
0.160892
0.218458
0.190904
0.0932061
0.0850696
0.167746
0.20641
0.179612
0.14334
0.124969
0.111849
-0.395248
-0.385408
-0.340841
-0.278223
-0.20524
-0.12908
-0.0513542
0.0234285
0.0886323
0.130961
0.183198
0.161482
0.0144055
-0.0834377
-0.0996273
-0.136434
-0.137402
-0.118153
-0.105246
-0.0958817
-0.395175
-0.387317
-0.346645
-0.28669
-0.216171
-0.142274
-0.0667346
0.00641282
0.0709778
0.111967
0.153871
0.141949
-0.0596315
-0.370776
-0.733148
-0.93685
-0.980887
-0.933741
-0.835269
-0.757253
-0.387739
-0.380542
-0.344594
-0.288036
-0.220377
-0.148852
-0.0752871
-0.00308958
0.0624576
0.106766
0.140541
0.139241
-0.0641949
-0.430795
-0.904913
-1.12969
-1.14769
-1.03364
-0.942333
-0.883644
-0.369537
-0.362037
-0.332635
-0.281275
-0.21712
-0.147989
-0.0759377
-0.00350421
0.0659025
0.119415
0.157384
0.18331
0.107622
-0.000215627
-0.154409
-0.177399
-0.0995861
-0.00919526
0.0999165
0.186388
-0.334767
-0.327907
-0.309328
-0.266048
-0.206201
-0.139373
-0.0682281
0.00616038
0.0826313
0.153726
0.21379
0.314653
0.44182
0.689933
0.906384
1.10535
1.28306
1.39653
1.45602
1.48664
-0.288395
-0.284374
-0.278231
-0.243732
-0.189117
-0.123878
-0.0529338
0.0246747
0.110419
0.204975
0.302026
0.454384
0.714346
1.12616
1.52582
1.85812
2.09116
2.2303
2.29492
2.31692
-0.252415
-0.252016
-0.246863
-0.219925
-0.17005
-0.105654
-0.0325645
0.0484844
0.141286
0.251649
0.371932
0.508609
0.81315
1.20587
1.58854
1.9166
2.15689
2.29761
2.35943
2.37607
-0.221144
-0.222079
-0.216513
-0.198054
-0.151895
-0.0874976
-0.0120041
0.0702186
0.162923
0.272172
0.389087
0.481904
0.728628
1.04311
1.33823
1.59321
1.79503
1.91711
1.97353
1.99032
-0.191008
-0.19075
-0.190565
-0.179164
-0.133112
-0.0693274
0.00582556
0.0867175
0.173311
0.2704
0.378858
0.441664
0.621097
0.871754
1.10337
1.29829
1.45518
1.55562
1.60085
1.61314
-0.16454
-0.163991
-0.169204
-0.15715
-0.111784
-0.0496493
0.0225248
0.0993848
0.177594
0.258315
0.357185
0.406445
0.522015
0.712791
0.896379
1.04114
1.15418
1.23164
1.26632
1.27426
-0.118427
-0.118284
-0.125475
-0.113967
-0.0762729
-0.0209009
0.0440661
0.112927
0.181694
0.246915
0.334131
0.379743
0.447036
0.587111
0.729867
0.837003
0.917502
0.973448
0.997959
1.00473
-0.0459318
-0.0478767
-0.0506898
-0.0431331
-0.0162196
0.0248577
0.0754402
0.131358
0.189144
0.242311
0.315172
0.358939
0.397431
0.499763
0.606037
0.683208
0.740541
0.78061
0.798405
0.804469
0.0429594
0.0413717
0.0396872
0.0442396
0.0602226
0.0854158
0.118089
0.157973
0.20361
0.245929
0.303173
0.341454
0.367361
0.443979
0.519536
0.572021
0.614647
0.646317
0.658929
0.662518
0.13105
0.129801
0.12854
0.130093
0.136765
0.148961
0.166222
0.19058
0.223839
0.254054
0.296603
0.328592
0.348765
0.407869
0.46184
0.495955
0.525876
0.546987
0.5569
0.560281
0.203333
0.202399
0.201175
0.20015
0.200695
0.204025
0.210817
0.223024
0.243651
0.263404
0.29184
0.320221
0.3343
0.380482
0.418711
0.443534
0.462008
0.474048
0.479418
0.480248
0.25396
0.253366
0.252012
0.249161
0.245494
0.243508
0.24438
0.248661
0.259078
0.271388
0.288615
0.310896
0.322124
0.354825
0.380565
0.398261
0.40985
0.414667
0.41575
0.414772
0.283572
0.283095
0.281804
0.278317
0.272673
0.26791
0.2654
0.265128
0.269706
0.27706
0.287738
0.300581
0.311875
0.330434
0.346148
0.356657
0.363123
0.364786
0.363535
0.362283
0.298394
0.297988
0.296819
0.293558
0.287905
0.282275
0.277931
0.275276
0.276782
0.280043
0.287091
0.292425
0.299291
0.309636
0.319417
0.325865
0.328757
0.329897
0.328707
0.326731
0.304069
0.303731
0.302704
0.300118
0.295392
0.290399
0.285818
0.2821
0.281441
0.281563
0.285051
0.286221
0.287044
0.293466
0.300869
0.305794
0.307817
0.306296
0.304618
0.302705
0.305165
0.304894
0.304031
0.302087
0.298404
0.294518
0.290489
0.286628
0.284773
0.282876
0.283139
0.282163
0.281152
0.285009
0.290106
0.292836
0.29306
0.289729
0.28712
0.285918
0.303975
0.303774
0.303104
0.301679
0.298939
0.295998
0.29269
0.289458
0.287437
0.284382
0.281921
0.279286
0.277161
0.282563
0.287069
0.287929
0.288063
0.28901
0.288315
0.286603
0.301842
0.301689
0.301248
0.300163
0.298147
0.296171
0.293831
0.290929
0.288909
0.285387
0.281793
0.276914
0.271657
0.281586
0.28958
0.293339
0.298119
0.302412
0.304103
0.301159
0.299091
0.298974
0.298707
0.297997
0.296722
0.295407
0.294503
0.292176
0.290857
0.287038
0.281888
0.276486
0.271148
0.281607
0.293224
0.301226
0.306824
0.307336
0.30728
0.306176
0.295961
0.29591
0.295852
0.295346
0.294643
0.294027
0.294617
0.293973
0.293199
0.290978
0.289897
0.282885
0.278815
0.286764
0.294689
0.299382
0.298657
0.296679
0.29638
0.296499
0.291317
0.291411
0.291715
0.292123
0.292454
0.292216
0.292681
0.2957
0.293834
0.298313
0.302164
0.293915
0.290087
0.296428
0.299733
0.302424
0.30574
0.310262
0.313357
0.31209
0.283341
0.283483
0.283942
0.28496
0.285938
0.287443
0.287697
0.292658
0.29694
0.302736
0.309722
0.305999
0.300159
0.305538
0.313401
0.326635
0.345382
0.356899
0.360197
0.356176
0.271621
0.272003
0.272497
0.273647
0.274899
0.278069
0.281345
0.287848
0.295069
0.306333
0.31651
0.323692
0.313451
0.315875
0.323792
0.335287
0.347496
0.356494
0.358834
0.352881
0.254339
0.254856
0.256058
0.258219
0.260874
0.264985
0.269771
0.276912
0.287331
0.299436
0.313735
0.32703
0.318347
0.307793
0.299822
0.298623
0.291453
0.284681
0.286695
0.28561
0.228587
0.229323
0.230769
0.233936
0.238364
0.244413
0.252155
0.259827
0.269479
0.284224
0.304225
0.302778
0.29916
0.275771
0.261617
0.249467
0.240032
0.226412
0.22494
0.227106
0.19243
0.19341
0.194978
0.198377
0.203432
0.21061
0.219006
0.227467
0.236791
0.242577
0.261089
0.2719
0.265528
0.24424
0.243796
0.238677
0.246579
0.251127
0.236052
0.242471
0.143987
0.144788
0.147331
0.152306
0.158733
0.16633
0.173246
0.178197
0.178531
0.177462
0.197303
0.212599
0.190692
0.19403
0.211937
0.226723
0.246949
0.261377
0.239303
0.241001
0.086763
0.0868948
0.087569
0.0914771
0.0991048
0.109135
0.116479
0.117415
0.106541
0.103708
0.124282
0.14094
0.10404
0.103337
0.127772
0.146601
0.14625
0.161333
0.158649
0.155732
0.0296079
0.0293773
0.0296074
0.030057
0.0306008
0.0302957
0.0246926
0.0166789
0.0109714
0.0283236
0.050173
0.0612918
0.0437605
0.0352359
0.0333861
0.0273921
0.0206428
0.0329354
0.0393564
0.0385111
-0.816021
0.0433128
0.314846
0.597164
0.785478
0.948087
1.08289
1.21973
1.36708
1.44532
0.181141
0.597548
0.619515
0.811935
0.942192
1.05867
1.15958
1.24874
1.27775
1.23447
0.571604
0.791318
0.830839
0.96964
1.05983
1.14306
1.21166
1.26293
1.26607
1.27915
0.809076
0.956941
0.993112
1.09886
1.1565
1.21715
1.26325
1.2963
1.30583
1.32917
0.993675
1.09671
1.12682
1.19777
1.24214
1.28511
1.31801
1.34266
1.3528
1.38408
1.13876
1.20957
1.24003
1.28464
1.32131
1.35225
1.37711
1.398
1.41247
1.44054
1.25967
1.31133
1.33727
1.36605
1.39442
1.41864
1.43896
1.45837
1.47347
1.49982
1.36442
1.40237
1.42364
1.44471
1.46604
1.48579
1.5034
1.52164
1.53658
1.56022
1.4593
1.48821
1.50536
1.52099
1.53748
1.55378
1.56946
1.58647
1.60008
1.62239
1.54808
1.56888
1.584
1.59738
1.61115
1.62506
1.6386
1.65321
1.66475
1.6844
1.63425
1.65012
1.66407
1.67603
1.68805
1.69971
1.71083
1.72251
1.73016
1.74698
1.71974
1.73267
1.74646
1.75813
1.76869
1.77843
1.78719
1.79542
1.79898
1.81026
1.80904
1.82004
1.8335
1.84272
1.85014
1.85734
1.86452
1.87105
1.87207
1.87949
1.90747
1.9122
1.92024
1.92473
1.92801
1.93247
1.93847
1.94621
1.95005
1.95993
2.02076
2.00708
1.99964
1.99402
1.99136
1.99276
1.99922
2.01162
2.0264
2.05605
2.1417
2.08595
2.0551
2.03802
2.02987
2.02984
2.03857
2.05812
2.09009
2.15929
)
;

boundaryField
{
    wall-4
    {
        type            zeroGradient;
    }
    pressure-outlet-7
    {
        type            fixedValue;
        value           uniform 0;
    }
    velocity-inlet-6
    {
        type            zeroGradient;
    }
    velocity-inlet-5
    {
        type            zeroGradient;
    }
    frontAndBackPlanes
    {
        type            empty;
    }
}


// ************************************************************************* //
