/*--------------------------------*- C++ -*----------------------------------*\
| =========                 |                                                 |
| \\      /  F ield         | OpenFOAM: The Open Source CFD Toolbox           |
|  \\    /   O peration     | Version:  v2012                                 |
|   \\  /    A nd           | Website:  www.openfoam.com                      |
|    \\/     M anipulation  |                                                 |
\*---------------------------------------------------------------------------*/
FoamFile
{
    version     2.0;
    format      ascii;
    class       surfaceScalarField;
    location    "34";
    object      phi;
}
// * * * * * * * * * * * * * * * * * * * * * * * * * * * * * * * * * * * * * //

dimensions      [0 3 -1 0 0 0 0];
oriented        oriented;


internalField   nonuniform List<scalar> 
4262
(
0.107138
0.47085
0.0955773
0.705147
0.0693882
0.858492
0.0473814
1.02077
0.0310293
1.21487
0.0198243
1.44942
0.0123781
1.73331
0.00718415
2.07623
0.00330545
2.48912
-0.000235945
2.98583
-0.00378783
2.98584
-0.00769297
2.48915
-0.0128815
2.07622
-0.0201239
1.73311
-0.0311013
1.4492
-0.0472747
1.21469
-0.0691439
1.02063
-0.0953659
0.858525
-0.107109
0.705329
0.470879
0.112891
0.357959
0.135301
0.682737
0.120393
0.8734
0.0977899
1.04337
0.0744559
1.2382
0.0527996
1.47108
0.0346
1.75151
0.0204534
2.09038
0.00908087
2.50049
-0.00106752
2.99598
-0.0112447
2.99602
-0.0223934
2.5003
-0.0362327
2.09006
-0.0542503
1.75112
-0.0759705
1.47092
-0.099543
1.23826
-0.12244
1.04353
-0.136497
0.872583
-0.113396
0.682227
0.357484
0.0921145
0.265844
0.125125
0.649727
0.12137
0.877155
0.105231
1.05951
0.0866267
1.25681
0.067433
1.49027
0.0484647
1.77048
0.0304711
2.10837
0.0141235
2.51684
-0.00165068
3.01176
-0.0171893
3.01156
-0.0331978
2.51631
-0.0508841
2.10775
-0.0697014
1.76994
-0.0883731
1.48959
-0.105987
1.25588
-0.120766
1.05831
-0.125445
0.877262
-0.0923792
0.649161
0.265105
0.0640106
0.201834
0.104861
0.608876
0.10662
0.875396
0.0952973
1.07084
0.0815688
1.27054
0.0670018
1.50484
0.0507835
1.7867
0.033549
2.1256
0.0158671
2.53452
-0.00267298
3.0303
-0.0209818
3.02987
-0.0381869
2.53351
-0.0548229
2.12439
-0.0701885
1.78531
-0.0840255
1.50343
-0.0975962
1.26945
-0.109111
1.06982
-0.106368
0.874519
-0.0645974
0.607391
0.200507
0.0374683
0.164365
0.0807866
0.565557
0.0911936
0.864989
0.0840403
1.07799
0.0715547
1.28302
0.0598408
1.51656
0.0470437
1.79949
0.0323509
2.1403
0.0156414
2.55123
-0.00339827
3.04934
-0.0222402
3.04871
-0.0385284
2.5498
-0.0525386
2.1384
-0.0647462
1.79751
-0.0759964
1.51468
-0.0878673
1.28132
-0.0942358
1.07619
-0.0827421
0.863025
-0.0381872
0.562836
0.16232
0.0195575
0.144808
0.0574513
0.527664
0.0729819
0.849458
0.0708963
1.08007
0.0620289
1.29189
0.0511031
1.52748
0.0399862
1.81061
0.0276502
2.15263
0.012889
2.56599
-0.00456765
3.06679
-0.0216491
3.06579
-0.0354796
2.56363
-0.0467293
2.14965
-0.0569243
1.80771
-0.0669848
1.52474
-0.074965
1.2893
-0.0761523
1.07738
-0.0594098
0.846283
-0.0202061
0.523632
0.142114
0.0106345
0.134173
0.0423133
0.495985
0.0584292
0.833343
0.0587886
1.07972
0.052672
1.298
0.0433845
1.53677
0.0333838
1.82061
0.0224452
2.16357
0.00983997
2.5786
-0.00557271
3.08221
-0.0206634
3.08088
-0.0324341
2.5754
-0.0424368
2.15965
-0.0511633
1.81644
-0.0594022
1.53298
-0.064405
1.2943
-0.0627961
1.07577
-0.0449305
0.828417
-0.0114325
0.490134
0.130681
0.00653104
0.127642
0.0329282
0.469588
0.0493054
0.816965
0.0510568
1.07796
0.0462471
1.30281
0.0380993
1.54492
0.028599
1.83011
0.0179407
2.17423
0.00618286
2.59036
-0.00741175
3.0958
-0.0204184
3.09389
-0.0309893
2.58597
-0.0400927
2.16875
-0.048048
1.82439
-0.0547358
1.53966
-0.0579832
1.29755
-0.0546112
1.0724
-0.0361495
0.809955
-0.0075463
0.461531
0.123135
0.00476723
0.122875
0.0266585
0.447696
0.0425664
0.801057
0.0449914
1.07554
0.0408735
1.30693
0.0338217
1.55197
0.0251739
1.83876
0.0150526
2.18435
0.0036565
2.60175
-0.00878893
3.10825
-0.0205875
3.10569
-0.0305451
2.59593
-0.038966
2.17717
-0.0460571
1.83148
-0.0515367
1.54514
-0.0539626
1.29997
-0.0493537
1.06779
-0.0305678
0.791169
-0.00595866
0.436922
0.117176
0.00370575
0.119169
0.0214616
0.429941
0.0366886
0.78583
0.0397095
1.07252
0.0358247
1.31082
0.0290657
1.55873
0.0208579
1.84697
0.0111462
2.19406
0.000211591
2.61269
-0.0114727
3.11993
-0.0224482
3.11666
-0.0314813
2.60496
-0.0390026
2.18469
-0.0446281
1.83711
-0.0488859
1.5494
-0.0503584
1.30145
-0.0446839
1.06211
-0.0261366
0.772622
-0.00518193
0.415967
0.111994
0.00277064
0.116399
0.0166138
0.416097
0.0302305
0.772214
0.0334077
1.06934
0.0298878
1.31434
0.0236569
1.56496
0.0161094
1.85451
0.00720989
2.20296
-0.00284602
2.62274
-0.0136605
3.13074
-0.0235684
3.12657
-0.0315406
2.61293
-0.0377551
2.19091
-0.0428381
1.84219
-0.0466096
1.55317
-0.0474164
1.30225
-0.0406464
1.05534
-0.0224614
0.754437
-0.00461758
0.398123
0.107377
0.00200876
0.11439
0.0124794
0.405627
0.0244934
0.7602
0.0276994
1.06613
0.0242289
1.31781
0.0181095
1.57108
0.0108339
1.86179
0.00260944
2.21119
-0.00675351
2.63211
-0.0172928
3.14128
-0.0265265
3.13581
-0.0331836
2.61959
-0.0380593
2.19578
-0.0418388
1.84597
-0.0445953
1.55593
-0.0443377
1.302
-0.0367111
1.04772
-0.0194466
0.737173
-0.00419707
0.382874
0.10318
0.00132175
0.113068
0.00902872
0.39792
0.0191155
0.750113
0.0216602
1.06359
0.018071
1.3214
0.0119928
1.57716
0.00501801
1.86876
-0.00269142
2.2189
-0.0114531
2.64087
-0.0213595
3.15119
-0.0297661
3.14421
-0.0350542
2.62488
-0.0384665
2.1992
-0.0414285
1.84893
-0.043271
1.55777
-0.0423911
1.30112
-0.0341585
1.03949
-0.0174741
0.720488
-0.00405136
0.369451
0.0991284
0.000577974
0.11249
0.00529614
0.393202
0.0129696
0.74244
0.0152609
1.0613
0.0116777
1.32498
0.00538357
1.58345
-0.00191177
1.87606
-0.00971843
2.2267
-0.0180038
2.64915
-0.0264933
3.15968
-0.0330862
3.1508
-0.0370769
2.62887
-0.0397123
2.20183
-0.0419127
1.85113
-0.0425175
1.55838
-0.0405008
1.2991
-0.0314395
1.03042
-0.0156069
0.704656
-0.00390669
0.357751
0.0952217
-0.000393587
0.112884
0.0012194
0.391589
0.0066471
0.737012
0.00767538
1.06027
0.00423459
1.32842
-0.00154486
1.58923
-0.00861509
1.88313
-0.0164984
2.23459
-0.024608
2.65726
-0.0321102
3.16718
-0.0376326
3.15633
-0.0407783
2.63202
-0.0424808
2.20354
-0.0429971
1.85165
-0.0422212
1.5576
-0.0389222
1.2958
-0.0291103
1.02061
-0.0139332
0.689479
-0.00361407
0.347432
0.0916077
-0.00143266
0.114316
-0.00233414
0.39249
0.000205779
0.734472
0.000569327
1.05991
-0.00331062
1.3323
-0.00930662
1.59523
-0.0165632
1.89039
-0.0245957
2.24262
-0.0329721
2.66564
-0.040373
3.17458
-0.0449114
3.16087
-0.0465867
2.63369
-0.046683
2.20363
-0.0454284
1.85039
-0.0432448
1.55542
-0.0380523
1.29061
-0.02718
1.00974
-0.0127712
0.67507
-0.00345023
0.338111
0.0881574
-0.00270957
0.117026
-0.00584727
0.395628
-0.00727472
0.735899
-0.00881952
1.06145
-0.0128399
1.33632
-0.0187534
1.60114
-0.0259483
1.89758
-0.0341107
2.25078
-0.0423919
2.67392
-0.0493431
3.18153
-0.0529355
3.16446
-0.0532014
2.63396
-0.0512145
2.20164
-0.0484266
1.84761
-0.0446689
1.55166
-0.0382694
1.28421
-0.0267297
0.9982
-0.0126283
0.660968
-0.00352956
0.329012
0.0846279
-0.00387248
0.120898
-0.0103292
0.402085
-0.0147174
0.740288
-0.0182682
1.065
-0.0234873
1.34154
-0.0305078
1.60816
-0.0385676
1.90564
-0.047008
2.25922
-0.0550237
2.68194
-0.0610611
3.18757
-0.0627758
3.16617
-0.0608906
2.63207
-0.057483
2.19824
-0.0534024
1.84353
-0.0477262
1.54598
-0.0395311
1.27601
-0.0268647
0.985534
-0.0130027
0.647106
-0.00379676
0.319806
0.0808311
-0.00530123
0.1262
-0.0150536
0.411837
-0.0231744
0.748408
-0.0292286
1.07106
-0.0355538
1.34787
-0.0437209
1.61633
-0.052835
1.91476
-0.0621678
2.26855
-0.070452
2.69022
-0.0753953
3.19251
-0.0749269
3.1657
-0.0709967
2.62814
-0.065232
2.19247
-0.0587882
1.83708
-0.0513799
1.53857
-0.0419675
1.2666
-0.0286509
0.972217
-0.0143494
0.632805
-0.00422476
0.309682
0.0766064
-0.00642062
0.13262
-0.0185405
0.423957
-0.0302955
0.760163
-0.039404
1.08016
-0.04822
1.35668
-0.0583385
1.62645
-0.0691091
1.92553
-0.0797326
2.27918
-0.0884023
2.69889
-0.0928615
3.19697
-0.0908877
3.16373
-0.084721
2.62197
-0.0767418
2.18449
-0.0684339
1.82877
-0.0593461
1.52949
-0.0479001
1.25515
-0.0325703
0.956887
-0.0167376
0.616972
-0.00496723
0.297911
0.0716391
-0.0086435
0.141264
-0.0247241
0.440037
-0.0406805
0.77612
-0.0529186
1.0924
-0.0637712
1.36753
-0.0760256
1.6387
-0.0888228
1.93832
-0.101029
2.29138
-0.110852
2.70871
-0.115212
3.20133
-0.110889
3.15941
-0.101997
2.61308
-0.0914509
2.17395
-0.0804339
1.81776
-0.06897
1.51802
-0.0556161
1.2418
-0.0384106
0.939682
-0.0201472
0.598709
-0.00593112
0.283695
0.065708
-0.0108386
0.152102
-0.0308402
0.460039
-0.0511556
0.796435
-0.0674657
1.10871
-0.082407
1.38248
-0.0980533
1.65435
-0.11345
1.95372
-0.127611
2.30555
-0.137604
2.71871
-0.140257
3.20399
-0.134156
3.15331
-0.123142
2.60207
-0.110194
2.161
-0.0973011
1.80486
-0.0836957
1.50442
-0.067
1.22511
-0.0457899
0.918472
-0.0239317
0.576851
-0.00698184
0.266745
0.0587262
-0.0153516
0.167454
-0.0421365
0.486824
-0.0681237
0.822422
-0.0888255
1.12941
-0.106927
1.40058
-0.125638
1.67306
-0.144177
1.97226
-0.160201
2.32157
-0.171101
2.72961
-0.173348
3.20623
-0.164601
3.14456
-0.149783
2.58725
-0.133269
2.14449
-0.1164
1.78799
-0.0989647
1.48698
-0.0784561
1.2046
-0.0537006
0.893716
-0.028117
0.551267
-0.00801696
0.246645
0.0507092
-0.0191734
0.186627
-0.0538314
0.521482
-0.0880357
0.856627
-0.114737
1.15612
-0.138489
1.42433
-0.162177
1.69675
-0.183475
1.99356
-0.200933
2.33903
-0.21118
2.73985
-0.210109
3.20516
-0.19732
3.13177
-0.179756
2.56969
-0.160654
2.12538
-0.141068
1.76841
-0.120016
1.46593
-0.0943025
1.17888
-0.0635364
0.86295
-0.0325079
0.520238
-0.00891626
0.223054
0.0417929
-0.0325899
0.219217
-0.0794512
0.568343
-0.121898
0.899074
-0.155203
1.18942
-0.184444
1.45357
-0.210875
1.72318
-0.233811
2.01649
-0.251163
2.35638
-0.259915
2.7486
-0.256321
3.20157
-0.240452
3.1159
-0.218555
2.54779
-0.194261
2.10109
-0.168891
1.74304
-0.141756
1.43879
-0.110244
1.14737
-0.0741007
0.826807
-0.0378595
0.483997
-0.0100724
0.195267
0.0317205
-0.0469778
0.266195
-0.117424
0.63879
-0.175172
0.956822
-0.214777
1.22903
-0.248017
1.48681
-0.276517
1.75168
-0.298738
2.03872
-0.313384
2.37102
-0.317176
2.7524
-0.306512
3.19091
-0.282827
3.09222
-0.255388
2.52035
-0.227486
2.07319
-0.199151
1.7147
-0.167947
1.40759
-0.130225
1.10965
-0.086315
0.782897
-0.041517
0.439199
-0.00990663
0.163656
0.0218139
-0.0327891
0.298984
-0.0920449
0.698045
-0.145078
1.00985
-0.189265
1.27321
-0.230288
1.52783
-0.265526
1.78691
-0.299542
2.07273
-0.329901
2.40138
-0.352263
2.77476
-0.360682
3.19932
-0.351063
3.0826
-0.328244
2.49753
-0.294758
2.0397
-0.251614
1.67156
-0.202287
1.35826
-0.147654
1.05502
-0.088649
0.723892
-0.0368318
0.387382
-0.00808127
0.134906
0.0137326
-0.0112561
0.31024
-0.0425827
0.729372
-0.0805553
1.04783
-0.116791
1.30945
-0.152088
1.56313
-0.185687
1.82051
-0.217171
2.10422
-0.24377
2.42798
-0.261594
2.79258
-0.264057
3.20179
-0.246587
3.06513
-0.21475
2.4657
-0.176324
2.00127
-0.136939
1.63218
-0.0963331
1.31766
-0.0560222
1.0147
-0.0230571
0.690927
-0.00400856
0.368333
0.000447635
0.130449
0.0141802
0.00197573
0.308265
-0.0199287
0.751276
-0.0475135
1.07541
-0.0758758
1.33781
-0.104541
1.5918
-0.1334
1.84937
-0.161078
2.13189
-0.184336
2.45124
-0.199224
2.80747
-0.199769
3.20233
-0.181435
3.04679
-0.152272
2.43653
-0.118976
1.96798
-0.0812059
1.5944
-0.0421232
1.27857
-0.00858151
0.981163
0.0116358
0.67071
0.0133571
0.366612
0.00518693
0.13862
0.0193672
0.00246558
0.305799
-0.00862976
0.762372
-0.0286858
1.09547
-0.0521427
1.36127
-0.0762315
1.61588
-0.100746
1.87389
-0.124466
2.15561
-0.144298
2.47107
-0.156014
2.81919
-0.153243
3.19956
-0.133884
3.02744
-0.106544
2.40919
-0.0728265
1.93426
-0.0376913
1.55927
-0.0085379
1.24942
0.0122134
0.960412
0.0216283
0.661295
0.0176526
0.370588
0.00632697
0.149945
0.0256941
0.00464986
0.301149
-0.00341919
0.770441
-0.0205453
1.11259
-0.0398741
1.3806
-0.0600714
1.63608
-0.0810613
1.89488
-0.101605
2.17616
-0.119015
2.48848
-0.129408
2.82958
-0.12773
3.19788
-0.111241
3.01095
-0.0847833
2.38273
-0.0558654
1.90534
-0.0286094
1.53201
-0.00296417
1.22378
0.0161266
0.941321
0.0224905
0.654931
0.0165481
0.37653
0.00558416
0.160909
0.0312783
0.00566531
0.295484
0.000388608
0.775717
-0.0148277
1.12781
-0.0326622
1.39843
-0.0509175
1.65434
-0.0696016
1.91356
-0.0878894
2.19445
-0.103408
2.504
-0.112484
2.83866
-0.109382
3.19478
-0.0925144
2.99408
-0.0705241
2.36074
-0.0463652
1.88118
-0.0210717
1.50672
0.000412163
1.20229
0.0147201
0.927013
0.0195299
0.650121
0.0130981
0.382962
0.00411849
0.169889
0.0353968
0.00381848
0.291665
-0.000155269
0.779691
-0.0131618
1.14082
-0.0292137
1.41448
-0.045994
1.67112
-0.0632161
1.93078
-0.0802189
2.21145
-0.0949921
2.51877
-0.104193
2.84786
-0.102444
3.19303
-0.0884408
2.98008
-0.0672358
2.33954
-0.0443143
1.85826
-0.0239743
1.48638
-0.00462778
1.18295
0.0085128
0.913873
0.012302
0.646332
0.00885039
0.386414
0.00286175
0.175877
0.0382585
0.00251515
0.28915
-0.000894313
0.783101
-0.0127862
1.15271
-0.0278703
1.42957
-0.0438258
1.68707
-0.0601227
1.94708
-0.076297
2.22762
-0.0905399
2.53302
-0.0993293
2.85665
-0.0986625
3.19236
-0.0860176
2.96743
-0.0678862
2.32141
-0.0477768
1.83815
-0.026835
1.46544
-0.0114045
1.16752
-0.000286587
0.902755
0.00430422
0.641741
0.00236864
0.388349
0.000921737
0.177324
0.0391803
-0.000175015
0.289325
-0.00378267
0.786708
-0.0142861
1.16321
-0.0278349
1.44312
-0.043031
1.70227
-0.0588661
1.96291
-0.0748014
2.24356
-0.089293
2.54751
-0.0996362
2.86699
-0.101309
3.19404
-0.089617
2.95574
-0.0717314
2.30352
-0.0526582
1.81908
-0.0367106
1.44949
-0.0219141
1.15272
-0.0115726
0.892413
-0.00602143
0.63619
-0.00321186
0.38554
-0.000933426
0.175046
0.0382468
-0.000707975
0.290033
-0.00574849
0.791749
-0.0157815
1.17325
-0.0285638
1.4559
-0.0432095
1.71691
-0.0586059
1.97831
-0.0742879
2.25924
-0.0887368
2.56196
-0.0988579
2.87711
-0.0996829
3.19486
-0.0903617
2.94642
-0.0753524
2.28851
-0.0595891
1.80332
-0.0432631
1.43316
-0.0293126
1.13877
-0.0180056
0.881106
-0.0103733
0.628558
-0.00624347
0.38141
-0.00185833
0.170661
0.0363885
-0.00264236
0.292676
-0.0080391
0.797146
-0.0174858
1.18269
-0.0295465
1.46796
-0.0435382
1.73091
-0.0586795
1.99345
-0.0745588
2.27512
-0.0899388
2.57734
-0.102652
2.88983
-0.108972
3.20118
-0.102529
2.93998
-0.0866938
2.27268
-0.0673834
1.78401
-0.051576
1.41736
-0.0370818
1.12427
-0.0258297
0.869854
-0.016985
0.619713
-0.0083033
0.372728
-0.00250613
0.164864
0.0338824
-0.00391376
0.296589
-0.00952075
0.802753
-0.0188254
1.192
-0.0305746
1.47971
-0.0441367
1.74447
-0.0590018
2.00832
-0.0749979
2.29112
-0.0908123
2.59315
-0.103467
2.90248
-0.108743
3.20646
-0.10275
2.93398
-0.0905192
2.26045
-0.0760256
1.76951
-0.0581215
1.39945
-0.0438801
1.11003
-0.0306302
0.856604
-0.0194504
0.608533
-0.0104669
0.363745
-0.00305403
0.157451
0.0308284
-0.00441242
0.301002
-0.010789
0.809129
-0.0199746
1.20118
-0.0313073
1.49104
-0.0444516
1.75761
-0.059129
2.02299
-0.0752236
2.30721
-0.0915856
2.60951
-0.106763
2.91766
-0.117989
3.21768
-0.116274
2.93227
-0.102266
2.24644
-0.0822888
1.74954
-0.0656365
1.3828
-0.0493632
1.09376
-0.0362699
0.843511
-0.0241401
0.596403
-0.0112494
0.350854
-0.00312602
0.149327
0.0277024
-0.00449097
0.305493
-0.0114068
0.816045
-0.0206982
1.21047
-0.031855
1.5022
-0.0446946
1.77045
-0.0590865
2.03739
-0.0752129
2.32334
-0.092317
2.62662
-0.108475
2.93382
-0.118844
3.22805
-0.118353
2.93178
-0.109425
2.23751
-0.0945139
1.73462
-0.0732485
1.36154
-0.0553787
1.07589
-0.0387899
0.826922
-0.0241063
0.58172
-0.0119241
0.338672
-0.00302122
0.140424
0.0246811
-0.00454844
0.310041
-0.0118766
0.823373
-0.0210387
1.21964
-0.0319067
1.51307
-0.0444819
1.78303
-0.0587292
2.05163
-0.074945
2.33955
-0.0925483
2.64422
-0.11019
2.95146
-0.125635
3.2435
-0.131086
2.93723
-0.120651
2.22708
-0.100595
1.71457
-0.0808614
1.3418
-0.0591633
1.05419
-0.0419678
0.809727
-0.0269718
0.566724
-0.0115799
0.32328
-0.00261582
0.13146
0.0220653
-0.00459032
0.314632
-0.0120297
0.830812
-0.021104
1.22871
-0.0317946
1.52376
-0.0441159
1.79535
-0.0581154
2.06563
-0.0742861
2.35572
-0.0923196
2.66225
-0.111112
2.97025
-0.127004
3.25939
-0.132418
2.94264
-0.126946
2.2216
-0.113066
1.70069
-0.0886495
1.31739
-0.0642552
1.0298
-0.040298
0.785769
-0.0211727
0.547598
-0.0092729
0.31138
-0.00179694
0.123984
0.0202684
-0.00462891
0.31926
-0.0120657
0.838249
-0.0208405
1.23748
-0.0312035
1.53412
-0.0432666
1.80741
-0.0571097
2.07948
-0.0732636
2.37188
-0.0915711
2.68056
-0.111397
2.99008
-0.130904
3.2789
-0.143061
2.9548
-0.138634
2.21718
-0.120252
1.68231
-0.0969585
1.29409
-0.0669342
0.999773
-0.0399557
0.758791
-0.0178149
0.525458
-0.00448197
0.298047
-0.00216605
0.121668
0.0181023
-0.00458082
0.323841
-0.011893
0.845561
-0.0204585
1.24605
-0.0305555
1.54422
-0.0422958
1.81915
-0.0558412
2.09302
-0.0718427
2.38788
-0.0903835
2.6991
-0.111007
3.0107
-0.131423
3.29931
-0.143142
2.96652
-0.143977
2.21801
-0.133847
1.67218
-0.107265
1.26751
-0.0731838
0.965692
-0.0316338
0.717241
0.00695485
0.486869
0.026103
0.278899
0.0223505
0.125421
0.0404528
-0.0044531
0.328294
-0.0116038
0.852712
-0.0198223
1.25427
-0.0295232
1.55392
-0.0409174
1.83055
-0.0542258
2.10633
-0.0700908
2.40374
-0.088665
2.71768
-0.109815
3.03185
-0.132442
3.32194
-0.149662
2.98374
-0.154821
2.22317
-0.141995
1.65935
-0.118319
1.24383
-0.0778721
0.925245
-0.0317367
0.671106
0.0197876
0.435345
0.0382779
0.260409
0.0167197
0.146979
0.0571725
-0.00424565
0.33254
-0.011189
0.859655
-0.0191542
1.26223
-0.0285124
1.56327
-0.0395366
1.84157
-0.0524655
2.11926
-0.0680614
2.41934
-0.0866186
2.73623
-0.108358
3.05359
-0.132461
3.34604
-0.150497
3.00177
-0.158411
2.23108
-0.15659
1.65753
-0.134177
1.22142
-0.0943173
0.885385
-0.0249797
0.601768
0.078145
0.33222
0.172259
0.166295
0.175699
0.143539
0.232871
-0.0040823
0.336622
-0.0109076
0.866481
-0.0187338
1.27006
-0.0280206
1.57256
-0.0392088
1.85276
-0.0526157
2.13267
-0.069107
2.43583
-0.0892038
2.75633
-0.113528
3.07791
-0.141622
3.37414
-0.1668
3.02695
-0.182551
2.24683
-0.181189
1.65617
-0.164807
1.20504
-0.123067
0.843645
-0.0757074
0.554408
-0.103899
0.360412
-0.362548
0.424944
-0.931127
0.712118
0.895672
-1.59393
-0.0038793
0.340502
-0.010496
0.873097
-0.0181575
1.27772
-0.027297
1.5817
-0.0383387
1.8638
-0.051766
2.14609
-0.06859
2.45265
-0.0895653
2.77731
-0.115721
3.10407
-0.148086
3.4065
-0.178724
3.05759
-0.198624
2.26673
-0.215784
1.67333
-0.214737
1.20399
-0.203926
0.832834
-0.284295
0.634777
-0.690026
0.766143
-1.419
1.15392
-2.03157
1.32469
1.21914
-2.35504
-0.00366602
0.344168
-0.00999639
0.879428
-0.0173554
1.28508
-0.0262391
1.59058
-0.037141
1.8747
-0.0506569
2.15961
-0.0678327
2.46983
-0.0896601
2.79913
-0.117616
3.13203
-0.152598
3.44148
-0.187619
3.09261
-0.219646
2.29876
-0.240195
1.69388
-0.245934
1.20973
-0.333698
0.920599
-0.748993
1.05007
-1.51819
1.53534
-2.0963
1.73202
-2.33914
1.56753
1.33493
-2.45492
-0.00344925
0.347617
-0.00944521
0.885424
-0.0165603
1.2922
-0.0252373
1.59926
-0.035929
1.88539
-0.0493902
2.17307
-0.066787
2.48723
-0.089313
2.82166
-0.118786
3.1615
-0.158278
3.48097
-0.202365
3.1367
-0.238195
2.33459
-0.276701
1.73238
-0.36599
1.29902
-0.696382
1.25099
-1.41953
1.77321
-2.01595
2.13177
-2.25856
1.97463
-2.37352
1.68248
1.40087
-2.43946
-0.0031801
0.350797
-0.00877909
0.891023
-0.0155112
1.29893
-0.0238637
1.60761
-0.0344179
1.89595
-0.0478823
2.18653
-0.0654804
2.50482
-0.0886822
2.84486
-0.119945
3.19276
-0.16232
3.52335
-0.209834
3.18421
-0.26022
2.38498
-0.312892
1.78505
-0.49107
1.4772
-1.08024
1.84016
-1.77094
2.46392
-2.10056
2.46139
-2.25207
2.12615
-2.33553
1.76594
1.46687
-2.40152
-0.00308204
0.353879
-0.00857619
0.896517
-0.0153246
1.30568
-0.023751
1.61604
-0.0345137
1.90671
-0.0481794
2.2002
-0.0662228
2.52287
-0.0902614
2.8689
-0.122914
3.22541
-0.168943
3.56938
-0.226914
3.24218
-0.279943
2.43801
-0.374145
1.87926
-0.751047
1.8541
-1.47505
2.56416
-1.95779
2.94666
-2.16008
2.66368
-2.26764
2.2337
-2.34499
1.84329
1.53137
-2.4095
-0.0031394
0.357018
-0.00885461
0.902232
-0.0158934
1.31272
-0.0246968
1.62484
-0.0359834
1.918
-0.0503329
2.21455
-0.0692236
2.54176
-0.0944711
2.89415
-0.129279
3.26022
-0.179261
3.61936
-0.237843
3.30077
-0.30587
2.50603
-0.496763
2.07015
-1.03551
2.39284
-1.66462
3.19327
-1.94858
3.23062
-2.0977
2.81279
-2.21315
2.34916
-2.30739
1.93753
1.59421
-2.37023
-0.00314815
0.360167
-0.00914822
0.908232
-0.0166668
1.32023
-0.0260054
1.63418
-0.0377681
1.92976
-0.0526936
2.22948
-0.072396
2.56146
-0.0987997
2.92055
-0.135133
3.29655
-0.18744
3.67167
-0.254433
3.36776
-0.34717
2.59877
-0.621519
2.3445
-1.24827
3.01959
-1.74545
3.69045
-1.95564
3.44081
-2.09884
2.95599
-2.22484
2.47516
-2.33807
2.05076
1.65401
-2.39787
-0.00308958
0.363256
-0.00932205
0.914465
-0.017192
1.3281
-0.0269728
1.64396
-0.0393197
1.94211
-0.0550033
2.24516
-0.0756095
2.58207
-0.103234
2.94817
-0.141611
3.33493
-0.197925
3.72798
-0.267395
3.43723
-0.391052
2.72243
-0.766124
2.71957
-1.39478
3.64825
-1.7578
4.05347
-1.93404
3.61706
-2.03937
3.06131
-2.1315
2.56729
-2.20182
2.12108
1.64789
-2.1957
-0.00296518
0.366221
-0.00945222
0.920952
-0.0178883
1.33654
-0.0282953
1.65437
-0.0411819
1.95499
-0.0574588
2.26144
-0.0788714
2.60348
-0.107638
2.97694
-0.147505
3.3748
-0.204325
3.7848
-0.285177
3.51808
-0.455586
2.89284
-0.894996
3.15898
-1.44965
4.20291
-1.71745
4.32127
-1.8753
3.77491
-1.97207
3.15809
-1.97716
2.57238
-1.91381
2.05773
1.62164
-1.88755
-0.00264704
0.368868
-0.00937601
0.927681
-0.0180838
1.34525
-0.0288391
1.66513
-0.0422193
1.96837
-0.0590073
2.27822
-0.080847
2.62532
-0.109946
3.00604
-0.150206
3.41506
-0.207975
3.84257
-0.294661
3.60477
-0.493082
3.09126
-0.967235
3.63313
-1.41635
4.65202
-1.59064
4.49556
-1.66126
3.84553
-1.66872
3.16554
-1.52466
2.42832
-1.0276
1.56067
0.594037
-0.00225329
0.371122
-0.00911344
0.934541
-0.0184549
1.35459
-0.0300415
1.67671
-0.044317
1.98265
-0.0622307
2.29614
-0.0857356
2.64882
-0.117345
3.03765
-0.161377
3.45909
-0.223621
3.90481
-0.326405
3.70755
-0.576358
3.34121
-1.10342
4.16019
-1.47044
5.01904
-1.573
4.59812
-1.57386
3.84638
-1.4752
3.06688
-1.23899
2.19211
-0.644182
0.965859
-0.0501455
-0.00177211
0.372894
-0.00846542
0.941234
-0.0179819
1.36411
-0.030093
1.68882
-0.0453398
1.9979
-0.0646302
2.31543
-0.0899912
2.67419
-0.124096
3.07176
-0.171902
3.50689
-0.2421
3.97501
-0.363872
3.82932
-0.664589
3.64193
-1.21328
4.70888
-1.4873
5.29306
-1.55177
4.66259
-1.5343
3.82891
-1.33581
2.8684
-0.797338
1.65364
-0.115749
0.28427
-0.165895
-0.00106777
0.373961
-0.00743062
0.947597
-0.0174852
1.37416
-0.0304611
1.7018
-0.0464592
2.01389
-0.0667655
2.33573
-0.093661
2.70108
-0.130267
3.10836
-0.181776
3.5584
-0.257339
4.05058
-0.4003
3.97229
-0.759311
4.00094
-1.29514
5.24471
-1.48126
5.47918
-1.511
4.69233
-1.42947
3.74739
-1.11535
2.55428
-0.327395
0.865683
0.0299987
-0.0731237
-0.135896
-0.000194412
0.374156
-0.00560948
0.953012
-0.0155748
1.38413
-0.0288997
1.71512
-0.0457101
2.0307
-0.0672942
2.35732
-0.0959576
2.72974
-0.134691
3.14709
-0.188756
3.61247
-0.27389
4.13571
-0.443643
4.14204
-0.857408
4.4147
-1.33215
5.71945
-1.45626
5.60329
-1.46556
4.70164
-1.26015
3.54197
-0.711925
2.00605
-0.0679061
0.221664
0.033621
-0.174651
-0.102275
0.00161749
0.372538
-0.00264472
0.957274
-0.0131963
1.39468
-0.0274771
1.72941
-0.0446762
2.0479
-0.0670065
2.37965
-0.0967387
2.75948
-0.137317
3.18767
-0.193679
3.66883
-0.28563
4.22766
-0.477082
4.33349
-0.940304
4.87792
-1.33049
6.10964
-1.40328
5.67609
-1.36722
4.66557
-1.08107
3.25583
-0.349218
1.2742
-0.00818579
-0.119369
0.0104479
-0.193285
-0.0918269
0.00347078
0.369068
0.00117168
0.959573
-0.00898407
1.40483
-0.0229586
1.74338
-0.0405487
2.06549
-0.0638874
2.40299
-0.0948818
2.79047
-0.136644
3.22943
-0.195112
3.7273
-0.295223
4.32777
-0.511299
4.54957
-0.99814
5.36477
-1.28472
6.39622
-1.32543
5.7168
-1.21297
4.55311
-0.812887
2.85574
-0.0968992
0.55821
0.0433109
-0.259579
0.0248831
-0.174857
-0.0669438
0.00576807
0.363299
0.004934
0.960407
-0.00410373
1.41387
-0.0180014
1.75728
-0.0355095
2.083
-0.0589543
2.42643
-0.0900781
2.8216
-0.132733
3.27209
-0.192655
3.78722
-0.297314
4.43243
-0.531444
4.7837
-1.00802
5.84134
-1.21347
6.60167
-1.23587
5.7392
-1.04115
4.35839
-0.496147
2.31074
-0.00218449
0.0642481
0.0148008
-0.276564
0.0164159
-0.176472
-0.0505279
0.00855043
0.354749
0.0105789
0.958379
0.00415445
1.42029
-0.00813542
1.76957
-0.0259232
2.10079
-0.049558
2.45007
-0.0807233
2.85276
-0.12268
3.31405
-0.182597
3.84714
-0.291983
4.54181
-0.542167
5.03388
-0.982319
6.2815
-1.11577
6.73512
-1.09543
5.71886
-0.864048
4.12701
-0.31087
1.75756
-0.0711288
-0.175493
-0.0422757
-0.305417
-0.0120241
-0.206724
-0.062552
0.0127131
0.342036
0.0189343
0.952158
0.01435
1.42488
0.00323841
1.78068
-0.0144187
2.11845
-0.0365795
2.47223
-0.0660553
2.88224
-0.106911
3.3549
-0.165512
3.90574
-0.275402
4.6517
-0.522202
5.28068
-0.898712
6.65801
-0.982671
6.81908
-0.955349
5.69153
-0.700531
3.87219
-0.158227
1.21525
-0.0776506
-0.256069
-0.0469362
-0.336132
-0.0166796
-0.23698
-0.0792316
0.017793
0.324243
0.0294896
0.940461
0.0287517
1.42562
0.0194224
1.79001
0.00387266
2.134
-0.0162785
2.49238
-0.0440356
2.90999
-0.0817035
3.39257
-0.136019
3.96006
-0.241314
4.757
-0.468973
5.50834
-0.768308
6.95734
-0.829193
6.87997
-0.745774
5.60811
-0.450687
3.5771
-0.00791833
0.772486
0.0166573
-0.280645
0.0115222
-0.330997
0.0122141
-0.237672
-0.0670175
0.0245893
0.299654
0.0437802
0.92127
0.0472733
1.42212
0.0403016
1.79698
0.028267
2.14603
0.0106676
2.50998
-0.013551
2.93421
-0.0465915
3.42561
-0.0949093
4.00837
-0.18902
4.85111
-0.380114
5.69943
-0.580876
7.1581
-0.62967
6.92876
-0.557885
5.53633
-0.22637
3.24559
0.104001
0.442114
0.0523008
-0.228944
0.0453248
-0.324021
0.0446775
-0.237025
-0.02234
0.0323664
0.267287
0.0610756
0.892561
0.071921
1.41128
0.0701498
1.79875
0.0617122
2.15447
0.0473042
2.52439
0.0276309
2.95389
0.000998572
3.45224
-0.0385022
4.04787
-0.104295
4.9169
-0.242272
5.83741
-0.36748
7.28331
-0.444364
7.00565
-0.480985
5.57295
-0.39139
3.15599
-0.395822
0.446546
-0.394739
-0.230027
-0.244895
-0.473865
-0.0746241
-0.407295
-0.096964
0.0416458
0.225641
0.0831157
0.851091
0.10277
1.39162
0.106562
1.79496
0.103099
2.15793
0.0937423
2.53374
0.0815972
2.96603
0.0638179
3.47002
0.037942
4.07375
0.00867145
4.94617
-0.0454623
5.89154
-0.105518
7.34337
-0.181258
7.08139
-0.32395
5.71564
-0.503042
3.33508
-0.780303
0.723806
-0.775667
-0.234662
-0.567606
-0.681927
-0.265316
-0.709584
-0.36228
0.050734
0.174907
0.108489
0.793336
0.141354
1.35876
0.153606
1.78271
0.156824
2.15471
0.152913
2.53765
0.148402
2.97054
0.143138
3.47529
0.14036
4.07653
0.140578
4.94596
0.201121
5.831
0.26641
7.27808
0.264195
7.0836
0.195867
5.78397
-0.0800497
3.611
-0.555063
1.19882
-0.749085
-0.0406406
-0.656045
-0.774967
-0.3504
-1.01523
-0.71268
0.0550348
0.119872
0.135441
0.71293
0.18642
1.30778
0.210059
1.75907
0.221478
2.1433
0.225514
2.53362
0.231219
2.96484
0.239921
3.46658
0.261413
4.05504
0.307031
4.90034
0.492397
5.64563
0.804697
6.96578
1.08667
6.80162
1.35394
5.51671
1.17192
3.79301
0.591535
1.77921
0.115893
0.435002
-0.143953
-0.515122
-0.18849
-0.970692
-0.90117
0.0499759
0.0698966
0.161565
0.60134
0.239918
1.22943
0.279053
1.71993
0.30047
2.12188
0.31297
2.52112
0.328462
2.94934
0.352233
3.44281
0.401437
4.00583
0.507914
4.79386
0.828665
5.32488
1.45994
6.3345
1.87001
6.39156
2.18124
5.20548
2.12676
3.8475
1.64508
2.26089
1.17025
0.909828
0.6344
0.020732
0.229584
-0.565877
-0.671586
0.0374982
0.0323983
0.186411
0.452428
0.295652
1.12019
0.357464
1.65812
0.391162
2.08818
0.416222
2.49606
0.439736
2.92583
0.477293
3.40526
0.549793
3.93333
0.699728
4.64393
1.09229
4.93232
1.83828
5.58851
2.24832
5.98152
2.48491
4.96889
2.48436
3.84804
2.06813
2.67712
1.51024
1.46772
0.95466
0.576311
0.426088
-0.037305
-0.245498
0.0292664
0.00313198
0.207298
0.274396
0.362765
0.96472
0.451305
1.56958
0.497506
2.04198
0.532552
2.46101
0.561893
2.89649
0.607559
3.35959
0.679982
3.86091
0.82681
4.4971
1.12738
4.63175
1.82551
4.89039
2.20691
5.60012
2.38346
4.79233
2.36417
3.86733
2.08596
2.95533
1.56434
1.98934
1.00163
1.13903
0.415613
0.548711
0.170115
0.0284987
-0.0253668
0.191407
0.111488
0.418359
0.737767
0.549381
1.43856
0.61433
1.97703
0.659725
2.41562
0.693657
2.86256
0.730439
3.32281
0.779923
3.81143
0.886393
4.39063
1.05368
4.46446
1.52531
4.41875
1.94629
5.17915
2.00359
4.73503
1.92352
3.9474
1.69784
3.18101
1.27922
2.40795
0.799307
1.61894
0.336251
1.01177
0.506365
0.0273084
-0.0526751
0.130467
0.0083295
0.377772
0.490462
0.540741
1.27559
0.61207
1.9057
0.638557
2.38913
0.648897
2.85222
0.643337
3.32837
0.635788
3.81897
0.635081
4.39133
0.666495
4.43305
0.842841
4.24241
1.06956
4.95243
1.06489
4.7397
0.979332
4.03295
0.845415
3.31493
0.642899
2.61047
0.38808
1.87376
0.151885
1.24796
0.65825
0.0208897
-0.0735648
0.0698985
-0.0406793
0.221134
0.339227
0.359349
1.13737
0.437088
1.82796
0.470612
2.35561
0.489645
2.83319
0.495172
3.32284
0.492566
3.82158
0.48478
4.39912
0.481955
4.43587
0.583748
4.14061
0.749751
4.78642
0.752045
4.73741
0.671663
4.11333
0.564098
3.42249
0.423005
2.75156
0.248254
2.04851
0.0858528
1.41036
0.744103
0.0212745
-0.0948393
0.0425279
-0.0619327
0.094732
0.287023
0.186666
1.04544
0.258631
1.756
0.304114
2.31012
0.33635
2.80095
0.35382
3.30537
0.359959
3.81544
0.359643
4.39944
0.345372
4.45014
0.393793
4.09219
0.504078
4.67614
0.503801
4.73769
0.441199
4.17594
0.354677
3.50902
0.251118
2.85512
0.131038
2.16859
0.0288624
1.51254
0.772965
0.00955161
-0.104391
-0.000968519
-0.0514126
-0.0142686
0.300323
0.027764
1.00341
0.0866365
1.69713
0.143892
2.25287
0.193052
2.75179
0.227311
3.27111
0.250978
3.79177
0.259227
4.39119
0.241693
4.46768
0.258376
4.07551
0.324576
4.60994
0.31844
4.74382
0.269237
4.22514
0.202131
3.57612
0.127809
2.92945
0.0503292
2.24607
-0.0103499
1.57322
0.762615
-0.0107702
-0.0936208
-0.0528346
-0.00934822
-0.0976331
0.345122
-0.0989957
1.00477
-0.0511327
1.64926
0.0117588
2.18998
0.069648
2.6939
0.122163
3.2186
0.158679
3.75526
0.170647
4.37922