/*--------------------------------*- C++ -*----------------------------------*\
| =========                 |                                                 |
| \\      /  F ield         | OpenFOAM: The Open Source CFD Toolbox           |
|  \\    /   O peration     | Version:  v2012                                 |
|   \\  /    A nd           | Website:  www.openfoam.com                      |
|    \\/     M anipulation  |                                                 |
\*---------------------------------------------------------------------------*/
FoamFile
{
    version     2.0;
    format      ascii;
    class       volVectorField;
    location    "34";
    object      U;
}
// * * * * * * * * * * * * * * * * * * * * * * * * * * * * * * * * * * * * * //

dimensions      [0 1 -1 0 0 0 0];


internalField   nonuniform List<vector> 
2200
(
(0.878835 -0.0304139 0)
(1.00578 -0.0512808 0)
(1.00326 -0.0354037 0)
(1.00019 -0.0244379 0)
(0.999781 -0.0166678 0)
(1.00004 -0.01076 0)
(1.00006 -0.00684514 0)
(1.00003 -0.00419413 0)
(0.999994 -0.0022148 0)
(1.00016 -0.000725751 0)
(1.00004 0.000933655 0)
(0.999932 0.00242726 0)
(0.999997 0.0044282 0)
(1.00012 0.00705775 0)
(1.00006 0.0108305 0)
(0.99976 0.0166606 0)
(1.00018 0.0244219 0)
(1.00346 0.0351078 0)
(1.00591 0.0513405 0)
(0.878964 0.0303539 0)
(0.712021 -0.0327665 0)
(0.996638 -0.0630266 0)
(1.03336 -0.0561551 0)
(1.02497 -0.0464166 0)
(1.01592 -0.0360726 0)
(1.00962 -0.0263007 0)
(1.00591 -0.0181727 0)
(1.00375 -0.0115384 0)
(1.00258 -0.00614958 0)
(1.00203 -0.00160296 0)
(1.00206 0.00254125 0)
(1.00262 0.00709301 0)
(1.00375 0.0123133 0)
(1.00566 0.0188083 0)
(1.0094 0.0269209 0)
(1.01581 0.0367377 0)
(1.02488 0.0471192 0)
(1.03312 0.0573146 0)
(0.996632 0.0631625 0)
(0.711821 0.032949 0)
(0.535434 -0.0239037 0)
(0.969855 -0.0569798 0)
(1.05639 -0.0548045 0)
(1.05226 -0.0489081 0)
(1.03631 -0.0406163 0)
(1.0244 -0.0324228 0)
(1.01575 -0.0241304 0)
(1.01031 -0.0162403 0)
(1.00715 -0.00904055 0)
(1.00565 -0.00245384 0)
(1.00558 0.00384607 0)
(1.00697 0.010292 0)
(1.01003 0.0173314 0)
(1.0155 0.0250969 0)
(1.02418 0.0333603 0)
(1.03604 0.0412819 0)
(1.05196 0.0493888 0)
(1.05632 0.0539541 0)
(0.969254 0.0575193 0)
(0.534453 0.0239321 0)
(0.392162 -0.0136529 0)
(0.911673 -0.046385 0)
(1.05739 -0.0469548 0)
(1.06939 -0.0442587 0)
(1.05483 -0.0382298 0)
(1.03935 -0.0317072 0)
(1.02751 -0.0248617 0)
(1.01906 -0.0175999 0)
(1.01365 -0.0101037 0)
(1.01097 -0.00257957 0)
(1.0108 0.00484481 0)
(1.01333 0.0122242 0)
(1.01862 0.0194677 0)
(1.02704 0.0264829 0)
(1.03868 0.0328686 0)
(1.05418 0.0392349 0)
(1.06865 0.0452725 0)
(1.05591 0.0479311 0)
(0.910315 0.046792 0)
(0.390389 0.0137267 0)
(0.307552 -0.00450225 0)
(0.846621 -0.0323941 0)
(1.04936 -0.0399602 0)
(1.0793 -0.0382936 0)
(1.06789 -0.033628 0)
(1.0515 -0.0280663 0)
(1.03836 -0.0228013 0)
(1.02817 -0.0168255 0)
(1.02118 -0.0100215 0)
(1.01743 -0.00246583 0)
(1.01726 0.00536589 0)
(1.02072 0.0127654 0)
(1.02749 0.0193975 0)
(1.0373 0.0250182 0)
(1.05033 0.0300414 0)
(1.06665 0.0353754 0)
(1.07767 0.039706 0)
(1.04732 0.0413403 0)
(0.843506 0.0328476 0)
(0.304573 0.00467297 0)
(0.264009 7.87045e-05 0)
(0.788453 -0.0201395 0)
(1.03282 -0.0316136 0)
(1.08326 -0.0322503 0)
(1.07704 -0.0289284 0)
(1.06054 -0.0239616 0)
(1.04701 -0.0194949 0)
(1.03618 -0.0144824 0)
(1.02831 -0.00859362 0)
(1.02379 -0.00170423 0)
(1.0235 0.00561466 0)
(1.02752 0.0122063 0)
(1.03493 0.0176181 0)
(1.04559 0.0222087 0)
(1.05883 0.0263114 0)
(1.07518 0.0308211 0)
(1.08111 0.0337441 0)
(1.0301 0.0329039 0)
(0.783944 0.020605 0)
(0.260013 7.41849e-05 0)
(0.240072 0.00106569 0)
(0.738126 -0.0122901 0)
(1.0136 -0.0249539 0)
(1.08403 -0.0267836 0)
(1.0829 -0.0245021 0)
(1.06766 -0.0203725 0)
(1.05401 -0.0164336 0)
(1.04319 -0.0121123 0)
(1.03516 -0.00698768 0)
(1.0304 -0.000915134 0)
(1.02999 0.00569816 0)
(1.03402 0.0114884 0)
(1.04144 0.0161766 0)
(1.0519 0.020132 0)
(1.06532 0.0234879 0)
(1.08018 0.0271826 0)
(1.08059 0.0289796 0)
(1.00854 0.0265749 0)
(0.730894 0.0129189 0)
(0.234699 -0.00089879 0)
(0.225673 0.000970602 0)
(0.694937 -0.00801386 0)
(0.992359 -0.0207419 0)
(1.08165 -0.0231994 0)
(1.08651 -0.0214815 0)
(1.07304 -0.018047 0)
(1.05949 -0.0142498 0)
(1.0489 -0.0100321 0)
(1.04107 -0.00523274 0)
(1.03638 0.000249942 0)
(1.03583 0.00612301 0)
(1.03949 0.0111921 0)
(1.04664 0.0153908 0)
(1.05649 0.0188551 0)
(1.06981 0.0220891 0)
(1.08277 0.0248512 0)
(1.07705 0.0258452 0)
(0.985479 0.0227201 0)
(0.685185 0.00883845 0)
(0.21887 -0.000777181 0)
(0.216119 0.000598538 0)
(0.659609 -0.00569905 0)
(0.972033 -0.0176926 0)
(1.07881 -0.0203454 0)
(1.08947 -0.0189799 0)
(1.07753 -0.0160865 0)
(1.06409 -0.0126669 0)
(1.05363 -0.0086463 0)
(1.0459 -0.00396383 0)
(1.04124 0.00116857 0)
(1.04046 0.00637613 0)
(1.04373 0.0110373 0)
(1.05041 0.0149895 0)
(1.06039 0.0182453 0)
(1.0734 0.021102 0)
(1.08437 0.0232402 0)
(1.07213 0.0238639 0)
(0.96191 0.0201225 0)
(0.646007 0.00668737 0)
(0.207297 -0.000388386 0)
(0.208878 0.000288854 0)
(0.631047 -0.00413572 0)
(0.952911 -0.0149178 0)
(1.07536 -0.0179349 0)
(1.09229 -0.0167507 0)
(1.08186 -0.0140937 0)
(1.0684 -0.0107581 0)
(1.05786 -0.00683721 0)
(1.05004 -0.00231679 0)
(1.04519 0.00256282 0)
(1.04418 0.00727125 0)
(1.04724 0.0116201 0)
(1.0537 0.0151404 0)
(1.06317 0.0181373 0)
(1.0759 0.0201997 0)
(1.08524 0.0219597 0)
(1.06608 0.0220186 0)
(0.938973 0.0177938 0)
(0.613335 0.00536306 0)
(0.197846 -3.01274e-05 0)
(0.203346 0.000119605 0)
(0.608391 -0.00288361 0)
(0.935076 -0.01206 0)
(1.07204 -0.0150615 0)
(1.095 -0.0141436 0)
(1.08584 -0.0117121 0)
(1.07244 -0.00861189 0)
(1.06191 -0.00496743 0)
(1.05397 -0.000794319 0)
(1.04882 0.00369945 0)
(1.04753 0.00800283 0)
(1.05037 0.0118016 0)
(1.05664 0.0149779 0)
(1.06591 0.0173489 0)
(1.07855 0.0195979 0)
(1.08605 0.0207832 0)
(1.06009 0.0205638 0)
(0.916915 0.015668 0)
(0.585544 0.00442743 0)
(0.18941 0.000204728 0)
(0.199292 5.48277e-05 0)
(0.591235 -0.00192183 0)
(0.920181 -0.00940824 0)
(1.06879 -0.012622 0)
(1.09788 -0.0116695 0)
(1.09002 -0.00930526 0)
(1.07645 -0.00625969 0)
(1.06555 -0.0028799 0)
(1.0573 0.00100979 0)
(1.05188 0.00528425 0)
(1.05022 0.00951863 0)
(1.05263 0.0128593 0)
(1.05861 0.0153908 0)
(1.06794 0.0174166 0)
(1.08024 0.0187705 0)
(1.08611 0.0198329 0)
(1.05224 0.0189384 0)
(0.895276 0.0137394 0)
(0.561965 0.00378218 0)
(0.181893 0.000359375 0)
(0.196392 4.06474e-06 0)
(0.578247 -0.00115585 0)
(0.906527 -0.00727055 0)
(1.06622 -0.00997403 0)
(1.10114 -0.00903189 0)
(1.09454 -0.00659211 0)
(1.08068 -0.00362211 0)
(1.06916 -0.000480641 0)
(1.06018 0.00307014 0)
(1.05403 0.00710123 0)
(1.05177 0.0111794 0)
(1.0541 0.0141498 0)
(1.06029 0.0159639 0)
(1.0698 0.0171848 0)
(1.08242 0.0184678 0)
(1.08591 0.0190464 0)
(1.04515 0.0180051 0)
(0.8755 0.0124048 0)
(0.541529 0.0034593 0)
(0.174772 0.000485274 0)
(0.194738 -2.13487e-05 0)
(0.569175 -0.000435142 0)
(0.896157 -0.00462032 0)
(1.06383 -0.00720513 0)
(1.10448 -0.00626612 0)
(1.09927 -0.00376689 0)
(1.08527 -0.000585873 0)
(1.07338 0.00254918 0)
(1.06399 0.00600841 0)
(1.05748 0.00968331 0)
(1.05491 0.0130221 0)
(1.05678 0.0152447 0)
(1.06255 0.0166487 0)
(1.07207 0.0175296 0)
(1.08361 0.0184492 0)
(1.08486 0.0185656 0)
(1.03589 0.0168632 0)
(0.855399 0.0110869 0)
(0.523449 0.00319942 0)
(0.167937 0.000555068 0)
(0.194758 -0.000168062 0)
(0.56476 0.000695248 0)
(0.888681 -0.00213185 0)
(1.06246 -0.00392778 0)
(1.10757 -0.00293368 0)
(1.10388 -0.000619427 0)
(1.09008 0.00226097 0)
(1.07813 0.005504 0)
(1.06859 0.00895555 0)
(1.06146 0.0123972 0)
(1.05785 0.0151192 0)
(1.05877 0.0169985 0)
(1.06396 0.0179716 0)
(1.07305 0.0185279 0)
(1.0834 0.0186556 0)
(1.08299 0.0180239 0)
(1.02761 0.015931 0)
(0.837926 0.00991897 0)
(0.508182 0.00290772 0)
(0.161573 0.000556224 0)
(0.196133 0.000161551 0)
(0.564871 0.00137051 0)
(0.883025 0.000511467 0)
(1.0617 -0.000847237 0)
(1.11086 0.000401169 0)
(1.10793 0.00264647 0)
(1.09416 0.00560985 0)
(1.08201 0.00893075 0)
(1.0722 0.0125376 0)
(1.0647 0.0160606 0)
(1.06064 0.0185133 0)
(1.06053 0.0198544 0)
(1.0645 0.0201763 0)
(1.07274 0.0201324 0)
(1.08249 0.0192574 0)
(1.07896 0.0181091 0)
(1.01575 0.0151427 0)
(0.818635 0.00889905 0)
(0.493569 0.00277847 0)
(0.155396 0.000557797 0)
(0.19994 0.000586594 0)
(0.567408 0.00208824 0)
(0.882856 0.00319323 0)
(1.06223 0.00286522 0)
(1.11366 0.00448926 0)
(1.11173 0.00676288 0)
(1.09791 0.00955109 0)
(1.08514 0.0129906 0)
(1.07439 0.016612 0)
(1.06555 0.0200356 0)
(1.06 0.0222015 0)
(1.05924 0.0231207 0)
(1.0634 0.0227792 0)
(1.07149 0.0216394 0)
(1.08043 0.0201468 0)
(1.07452 0.0184427 0)
(1.00603 0.014952 0)
(0.803387 0.00856168 0)
(0.481285 0.00287805 0)
(0.149621 0.000571998 0)
(0.205275 0.000678437 0)
(0.573662 0.00322043 0)
(0.885946 0.00580314 0)
(1.06442 0.00662655 0)
(1.11774 0.00891876 0)
(1.11622 0.0115392 0)
(1.10205 0.0149101 0)
(1.08869 0.0185267 0)
(1.07696 0.0220901 0)
(1.06698 0.0252923 0)
(1.06077 0.0269772 0)
(1.05901 0.0269425 0)
(1.06153 0.0256473 0)
(1.06877 0.0240892 0)
(1.07651 0.0219791 0)
(1.06754 0.0193727 0)
(0.992058 0.0150426 0)
(0.784355 0.00851679 0)
(0.467116 0.00314045 0)
(0.143075 0.000606732 0)
(0.213828 0.000849681 0)
(0.587095 0.00448578 0)
(0.894154 0.00868081 0)
(1.06935 0.0111656 0)
(1.12218 0.0137868 0)
(1.12156 0.0170235 0)
(1.10747 0.0208938 0)
(1.09365 0.0248614 0)
(1.08099 0.0288069 0)
(1.06933 0.0317597 0)
(1.06075 0.0327622 0)
(1.05737 0.0316988 0)
(1.05959 0.029625 0)
(1.06614 0.0268199 0)
(1.07218 0.0240529 0)
(1.06098 0.0204716 0)
(0.981067 0.0158206 0)
(0.770417 0.009246 0)
(0.454941 0.00358478 0)
(0.136628 0.000633971 0)
(0.223255 0.00111242 0)
(0.601444 0.00529421 0)
(0.905572 0.0110707 0)
(1.07718 0.0149782 0)
(1.12923 0.0187714 0)
(1.12851 0.0229884 0)
(1.11369 0.0275029 0)
(1.09892 0.0322744 0)
(1.08507 0.0365158 0)
(1.07192 0.0394371 0)
(1.06186 0.0400268 0)
(1.05676 0.0382599 0)
(1.05647 0.0350176 0)
(1.06154 0.031412 0)
(1.06627 0.0278201 0)
(1.05144 0.0235255 0)
(0.964627 0.0178277 0)
(0.749296 0.0106487 0)
(0.437461 0.00427439 0)
(0.128214 0.000719966 0)
(0.236843 0.00150531 0)
(0.623127 0.00708879 0)
(0.923406 0.0147093 0)
(1.08817 0.0203594 0)
(1.13732 0.0250421 0)
(1.13621 0.0300485 0)
(1.12028 0.0357036 0)
(1.104 0.0410315 0)
(1.0881 0.0459755 0)
(1.07258 0.0492774 0)
(1.05981 0.0494437 0)
(1.05293 0.046255 0)
(1.05248 0.0420195 0)
(1.05691 0.0372072 0)
(1.05968 0.0325108 0)
(1.0421 0.0271701 0)
(0.950865 0.0207207 0)
(0.73281 0.0128327 0)
(0.421205 0.00516033 0)
(0.11949 0.00082329 0)
(0.253028 0.00203973 0)
(0.64801 0.00868934 0)
(0.944601 0.0183908 0)
(1.10238 0.0258477 0)
(1.14806 0.0320455 0)
(1.14575 0.0391588 0)
(1.128 0.0456108 0)
(1.10968 0.0521996 0)
(1.09136 0.0576036 0)
(1.07323 0.0606162 0)
(1.05776 0.0597094 0)
(1.04875 0.0560935 0)
(1.04565 0.0507208 0)
(1.04862 0.0446732 0)
(1.05042 0.0395782 0)
(1.02902 0.0328657 0)
(0.929603 0.0248206 0)
(0.704789 0.0152807 0)
(0.396104 0.00609341 0)
(0.107539 0.000952945 0)
(0.275589 0.00283328 0)
(0.682143 0.01238 0)
(0.972693 0.0245233 0)
(1.12091 0.0341993 0)
(1.16179 0.0421117 0)
(1.15735 0.0500237 0)
(1.13735 0.0583509 0)
(1.11643 0.0659147 0)
(1.09504 0.0719328 0)
(1.07355 0.075164 0)
(1.05514 0.0738075 0)
(1.04385 0.0684766 0)
(1.04011 0.0615606 0)
(1.04185 0.0539056 0)
(1.04053 0.0470142 0)
(1.01453 0.0385053 0)
(0.909212 0.0290552 0)
(0.681284 0.0180014 0)
(0.373049 0.00712219 0)
(0.0956444 0.00100409 0)
(0.306434 0.0037215 0)
(0.726614 0.0151891 0)
(1.00916 0.0317644 0)
(1.14464 0.044429 0)
(1.17875 0.053909 0)
(1.17156 0.0651968 0)
(1.14824 0.0746444 0)
(1.12417 0.0833842 0)
(1.09944 0.0896721 0)
(1.07428 0.0920741 0)
(1.05178 0.0888328 0)
(1.03685 0.0820402 0)
(1.02984 0.0740918 0)
(1.02946 0.065295 0)
(1.02695 0.0568697 0)
(0.99518 0.0467398 0)
(0.879752 0.0345826 0)
(0.642621 0.0211778 0)
(0.337653 0.00800949 0)
(0.0797341 0.0010576 0)
(0.342236 0.00727495 0)
(0.782491 0.0244852 0)
(1.05329 0.0442714 0)
(1.17338 0.0601932 0)
(1.19967 0.0729864 0)
(1.18746 0.0853902 0)
(1.16018 0.096301 0)
(1.13203 0.105376 0)
(1.10288 0.111309 0)
(1.07331 0.112814 0)
(1.0476 0.108491 0)
(1.031 0.100308 0)
(1.02282 0.0899166 0)
(1.02008 0.0788004 0)
(1.01154 0.0676311 0)
(0.972049 0.0547186 0)
(0.848518 0.0403998 0)
(0.608287 0.0246314 0)
(0.306396 0.0093317 0)
(0.0651552 0.000991357 0)
(0.423448 0.0110345 0)
(0.866424 0.0352509 0)
(1.11282 0.0645976 0)
(1.20893 0.0852691 0)
(1.22352 0.0984376 1.15119e-33)
(1.20506 0.114217 -5.01301e-34)
(1.17228 0.125074 0)
(1.1394 0.133471 0)
(1.10564 0.137917 0)
(1.07149 0.136988 0)
(1.04114 0.129407 0)
(1.01953 0.117503 0)
(1.007 0.10525 0)
(1.00097 0.0927749 0)
(0.990886 0.0799636 0)
(0.944156 0.0651304 0)
(0.808203 0.0473572 0)
(0.555268 0.0287078 0)
(0.25709 0.00946122 0)
(0.044813 0.000749566 0)
(0.493041 0.0261598 9.67896e-20)
(0.963343 0.0590582 -7.26489e-20)
(1.17622 0.0975922 0)
(1.24513 0.121099 5.22822e-20)
(1.24926 0.137421 -4.23675e-20)
(1.22174 0.153185 5.28906e-34)
(1.18336 0.162473 0)
(1.14532 0.168958 2.61394e-20)
(1.10612 0.171214 -8.45069e-20)
(1.06646 0.167645 1.69658e-20)
(1.0319 0.157595 0)
(1.00892 0.144343 -4.04993e-20)
(0.99548 0.12983 -4.78136e-20)
(0.985773 0.114048 8.34053e-20)
(0.963208 0.0970654 -6.55692e-20)
(0.900985 0.0777657 0)
(0.749273 0.0564845 -2.34314e-20)
(0.4866 0.0323655 0)
(0.203382 0.0113624 -1.29171e-19)
(0.0269362 0.00103697 1.52598e-19)
(0.526348 0.0539848 -1.2098e-20)
(1.02139 0.102442 2.45608e-19)
(1.22152 0.147798 -2.22223e-20)
(1.27618 0.168682 -1.47663e-19)
(1.27162 0.185767 -9.00756e-20)
(1.23634 0.199592 1.45675e-19)
(1.19271 0.206709 0)
(1.1493 0.211102 0)
(1.10459 0.210922 1.35125e-19)
(1.05961 0.204401 0)
(1.01959 0.190788 1.4876e-19)
(0.988547 0.17331 4.34525e-20)
(0.965058 0.154695 3.53548e-22)
(0.945484 0.137129 -9.08112e-20)
(0.922993 0.120316 0)
(0.85904 0.101152 0)
(0.702812 0.0738688 -3.82463e-19)
(0.446171 0.0449816 9.57628e-19)
(0.187494 0.0157853 -5.67891e-19)
(0.0217415 0.00264806 -6.70824e-19)
(0.532365 0.0767458 -1.88683e-19)
(1.05568 0.158973 6.60167e-20)
(1.25566 0.208987 3.01619e-20)
(1.30104 0.228018 2.6103e-19)
(1.28892 0.2428 1.40886e-20)
(1.24748 0.252313 -3.84527e-19)
(1.19899 0.255804 1.27072e-19)
(1.15019 0.257224 0)
(1.09989 0.25392 -2.87321e-19)
(1.04877 0.244057 2.4361e-19)
(1.00281 0.227809 -4.00479e-19)
(0.968042 0.207779 1.85816e-19)
(0.944756 0.189634 -1.16143e-19)
(0.927101 0.172434 2.63627e-19)
(0.893759 0.152413 0)
(0.822533 0.128348 -9.47689e-20)
(0.671899 0.0971924 0)
(0.435087 0.0579133 5.25358e-19)
(0.189089 0.0256082 -1.24771e-18)
(0.0276752 0.00327823 7.81417e-19)
(0.523451 0.108429 6.70345e-19)
(1.07018 0.215476 -2.80791e-19)
(1.2746 0.273758 -5.34705e-20)
(1.31717 0.29181 0)
(1.30001 0.304221 -1.86253e-19)
(1.25411 0.309078 2.26947e-19)
(1.20143 0.308331 -1.35957e-19)
(1.14783 0.305996 0)
(1.09275 0.298658 2.04519e-19)
(1.03719 0.284618 -1.72099e-19)
(0.986599 0.263828 3.46027e-19)
(0.946696 0.241484 0)
(0.915757 0.221036 -2.47346e-19)
(0.886306 0.199465 1.40526e-19)
(0.857353 0.179607 3.47022e-19)
(0.794564 0.158209 -3.05203e-19)
(0.656733 0.124054 4.86741e-19)
(0.436106 0.0793847 -1.07722e-18)
(0.204732 0.0375077 6.80258e-19)
(0.0385492 0.00708647 -8.51326e-19)
(0.51076 0.132793 -3.27029e-19)
(1.07729 0.270613 2.3866e-19)
(1.28481 0.340523 -1.7358e-19)
(1.32532 0.35747 3.01296e-19)
(1.30459 0.367294 -2.57859e-19)
(1.25586 0.36751 7.6502e-20)
(1.2001 0.362633 3.65014e-21)
(1.14268 0.356311 -2.49408e-19)
(1.08344 0.344906 -2.16182e-19)
(1.02241 0.32686 -3.69355e-19)
(0.965731 0.303318 -7.42827e-19)
(0.922559 0.278632 -2.22978e-19)
(0.891218 0.255394 2.46705e-21)
(0.868083 0.235988 -4.72186e-19)
(0.83216 0.216456 -6.34023e-21)
(0.766446 0.189006 4.41458e-19)
(0.636148 0.151065 -1.32683e-19)
(0.433961 0.100712 -7.75465e-20)
(0.217271 0.0512123 0)
(0.0479364 0.0115399 1.79696e-18)
(0.4923 0.153288 0)
(1.06881 0.319556 -5.64116e-20)
(1.28579 0.403319 0)
(1.32696 0.421034 -1.24938e-20)
(1.30383 0.429479 2.65736e-19)
(1.2531 0.425772 -1.7027e-19)
(1.19493 0.417059 1.51735e-19)
(1.13446 0.406777 4.05521e-19)
(1.07148 0.390914 -1.18515e-19)
(1.00683 0.368776 1.88076e-19)
(0.948265 0.340553 3.98658e-19)
(0.901526 0.312459 4.83169e-19)
(0.865082 0.28873 -2.8653e-19)
(0.831021 0.265774 5.08829e-19)
(0.802196 0.245031 -4.00785e-19)
(0.746906 0.221091 0)
(0.62938 0.179833 -1.00288e-18)
(0.439876 0.124695 1.35045e-18)
(0.229704 0.0662459 1.00607e-19)
(0.0556871 0.0163829 -1.88588e-18)
(0.47846 0.173905 -5.1804e-21)
(1.06116 0.368545 9.54727e-20)
(1.28269 0.464515 5.33316e-19)
(1.32391 0.482646 -3.87292e-19)
(1.29871 0.489742 2.0022e-19)
(1.24657 0.482564 -1.74239e-19)
(1.18674 0.470614 3.11979e-19)
(1.12389 0.456688 -1.31337e-19)
(1.05821 0.437254 -4.88569e-19)
(0.98996 0.41119 2.18044e-22)
(0.926547 0.378972 -4.30346e-19)
(0.87702 0.348641 -5.17757e-19)
(0.841641 0.321722 3.12943e-19)
(0.817123 0.300835 -1.82363e-19)
(0.781362 0.278844 4.3265e-19)
(0.722782 0.248878 0)
(0.611822 0.206623 -6.18387e-19)
(0.437633 0.146569 9.12946e-19)
(0.236994 0.0802728 1.73151e-18)
(0.0608864 0.020916 -2.03772e-18)
(0.463634 0.191332 5.2749e-19)
(1.04735 0.412559 -2.78772e-19)
(1.27527 0.521811 -3.40436e-19)
(1.31732 0.541375 4.11033e-19)
(1.29049 0.547718 1.14777e-20)
(1.23723 0.537479 -3.58306e-19)
(1.1759 0.522503 -1.73768e-19)
(1.11114 0.505214 -1.54782e-19)
(1.04288 0.481848 -2.69437e-19)
(0.971366 0.451163 4.30295e-19)
(0.906236 0.416313 4.43397e-19)
(0.856317 0.382367 8.24319e-19)
(0.818101 0.354946 0)
(0.78259 0.327813 5.89854e-21)
(0.754217 0.304424 -1.1773e-18)
(0.70573 0.280501 2.74103e-19)
(0.60289 0.233962 1.32925e-18)
(0.435381 0.169091 -3.91799e-19)
(0.23857 0.0932528 8.17614e-19)
(0.0630143 0.0244443 -6.8346e-20)
(0.454806 0.210275 5.97033e-21)
(1.0364 0.456224 -2.14159e-19)
(1.26602 0.576752 -2.30038e-19)
(1.30817 0.597365 6.13839e-19)
(1.27977 0.602811 -5.74075e-19)
(1.22567 0.589891 3.7141e-19)
(1.16331 0.572464 1.8255e-19)
(1.09705 0.552254 4.76995e-19)
(1.02675 0.525809 5.55247e-19)
(0.953527 0.493097 -4.81958e-19)
(0.885982 0.454026 0)
(0.832481 0.415788 -3.05369e-19)
(0.793331 0.384837 3.50591e-19)
(0.76863 0.360536 4.3092e-19)
(0.734401 0.337298 -2.49595e-19)
(0.680647 0.303884 -6.0318e-19)
(0.582001 0.258265 -1.79684e-19)
(0.424524 0.186631 -1.33641e-21)
(0.232467 0.103319 0)
(0.0618478 0.0264205 0)
(0.446481 0.226013 1.81092e-19)
(1.02363 0.496156 0)
(1.25489 0.628079 -2.30297e-19)
(1.29714 0.650463 8.0876e-20)
(1.26748 0.655293 6.23384e-19)
(1.21274 0.639881 -1.6459e-19)
(1.14958 0.62011 1.89525e-19)
(1.08224 0.59714 -3.30298e-19)
(1.01066 0.567567 4.29506e-19)
(0.93517 0.529956 -1.47215e-19)
(0.864257 0.485251 2.53064e-19)
(0.810518 0.44699 9.70789e-19)
(0.772499 0.413567 1.3703e-20)
(0.734473 0.385276 -4.52396e-19)
(0.707746 0.358307 8.24298e-19)
(0.663495 0.331433 4.4194e-21)
(0.570607 0.278862 1.92239e-19)
(0.414946 0.203288 -9.16028e-19)
(0.224446 0.10991 9.35881e-19)
(0.0585307 0.0279849 -1.11089e-18)
(0.440441 0.245016 3.75366e-23)
(1.01258 0.53513 0)
(1.24301 0.676964 0)
(1.28478 0.700802 -1.01273e-19)
(1.25403 0.704684 -2.11674e-19)
(1.19882 0.68703 1.96458e-19)
(1.13493 0.665368 -3.79842e-19)
(1.06638 0.640099 0)
(0.992367 0.60808 -6.2508e-19)
(0.913062 0.568636 6.94142e-19)
(0.841051 0.524411 7.04483e-19)
(0.785816 0.479556 -3.53452e-19)
(0.744422 0.442739 -4.20211e-19)
(0.721633 0.413541 9.81503e-19)
(0.687877 0.386954 -2.9296e-19)
(0.638481 0.348669 -3.48421e-19)
(0.547664 0.297477 -2.08078e-19)
(0.39934 0.21449 -9.85527e-19)
(0.213951 0.114242 1.42555e-19)
(0.0540271 0.0284052 1.19626e-18)
(0.436889 0.263498 5.87429e-20)
(1.00156 0.571328 1.12186e-19)
(1.23027 0.722528 2.33901e-20)
(1.27167 0.748283 -7.24279e-23)
(1.24006 0.751527 -1.38069e-19)
(1.18438 0.731814 3.83866e-19)
(1.11986 0.708309 0)
(1.05037 0.68101 1.9412e-19)
(0.975546 0.646819 -1.53066e-19)
(0.897269 0.604234 1.16541e-18)
(0.823901 0.553484 -1.57999e-19)
(0.764758 0.506426 1.78923e-19)
(0.723296 0.46841 0)
(0.685842 0.433898 -5.29436e-19)
(0.660552 0.402628 6.34455e-19)
(0.619932 0.372363 0)
(0.532695 0.311431 -4.48603e-19)
(0.382894 0.22462 1.31878e-18)
(0.201776 0.116438 1.55052e-19)
(0.0487277 0.0279679 -1.47014e-18)
(0.434987 0.28032 1.08248e-19)
(0.991969 0.606302 -1.38124e-19)
(1.21749 0.765646 0)
(1.25811 0.792915 -2.11701e-19)
(1.22566 0.795372 0)
(1.16961 0.773856 -4.35435e-19)
(1.10456 0.74886 0)
(1.03436 0.719733 0)
(0.95814 0.683545 -1.85279e-19)
(0.875182 0.63926 -1.10184e-18)
(0.795068 0.58757 -1.2974e-18)
(0.73603 0.536353 2.03481e-19)
(0.695906 0.491732 7.23887e-19)
(0.671201 0.458199 5.7824e-19)
(0.640613 0.42736 -2.03596e-18)
(0.593531 0.382773 -8.13546e-19)
(0.507009 0.324785 4.76369e-19)
(0.363389 0.229233 0)
(0.188621 0.116775 1.33424e-18)
(0.0432938 0.0265794 -1.58167e-18)
(0.433666 0.29604 -1.01259e-19)
(0.982332 0.638809 1.36193e-19)
(1.20464 0.805795 0)
(1.24446 0.834937 -1.05531e-20)
(1.21131 0.836882 9.73223e-20)
(1.15496 0.813702 0)
(1.08953 0.787211 1.15938e-19)
(1.01851 0.756495 1.23864e-19)
(0.94083 0.71876 -3.667e-19)
(0.857087 0.672281 1.53737e-19)
(0.779313 0.616109 0)
(0.717911 0.562614 8.49964e-19)
(0.671394 0.518101 4.44986e-21)
(0.635063 0.475808 3.11248e-19)
(0.610938 0.437569 3.67949e-19)
(0.573231 0.402168 0)
(0.489671 0.331697 -7.78517e-19)
(0.344618 0.233344 1.52847e-18)
(0.174937 0.115303 -1.61804e-18)
(0.0380604 0.0247863 3.40279e-18)
(0.432642 0.311111 0)
(0.97374 0.670322 0)
(1.19219 0.843612 9.19965e-20)
(1.23092 0.874215 0)
(1.19708 0.875587 0)
(1.14044 0.851024 -4.49475e-19)
(1.07456 0.823347 1.21331e-19)
(1.00283 0.791209 1.73776e-20)
(0.923811 0.7521 -8.96678e-20)
(0.837455 0.70419 0)
(0.753218 0.64805 -1.93186e-19)
(0.685954 0.591145 -6.90013e-19)
(0.643318 0.538455 -8.1934e-19)
(0.618323 0.496572 -3.25614e-19)
(0.589209 0.458915 3.98064e-19)
(0.545277 0.405117 -9.37803e-19)
(0.462036 0.339689 1.67348e-18)
(0.322706 0.232093 4.31646e-21)
(0.161244 0.112246 -1.55217e-18)
(0.0333202 0.0227313 -2.29292e-19)
(0.431639 0.32585 0)
(0.965284 0.69989 9.5828e-20)
(1.17996 0.878952 -8.79406e-20)
(1.21758 0.911207 0)
(1.18316 0.912188 0)
(1.12632 0.886342 9.44295e-19)
(1.06017 0.857506 0)
(0.987784 0.824145 0)
(0.907663 0.784032 -8.16234e-19)
(0.819924 0.735058 1.97829e-19)
(0.73512 0.675163 -1.7547e-18)
(0.66878 0.615258 0)
(0.618936 0.563038 -8.83556e-19)
(0.57931 0.51213 1.10824e-20)
(0.556071 0.462216 -1.27689e-18)
(0.522386 0.419092 5.04258e-19)
(0.444111 0.337398 2.60189e-21)
(0.305906 0.230221 -1.76352e-18)
(0.149517 0.108154 8.35829e-19)
(0.0291906 0.020809 2.45516e-19)
(0.430738 0.34019 0)
(0.957691 0.728426 6.62747e-20)
(1.16822 0.912199 -9.4785e-20)
(1.20462 0.945631 -3.26642e-19)
(1.16963 0.94615 -1.28199e-19)
(1.11262 0.91933 1.16811e-19)
(1.04618 0.889645 -1.08004e-19)
(0.973276 0.855258 9.19773e-19)
(0.892046 0.8141 8.7314e-19)
(0.801773 0.764124 1.56778e-18)
(0.712444 0.705541 1.45862e-18)
(0.639053 0.644231 2.49647e-19)
(0.587756 0.583332 1.26853e-18)
(0.559985 0.530133 7.69779e-19)
(0.531716 0.481108 9.15371e-19)
(0.492067 0.41205 -5.49986e-19)
(0.415189 0.336493 -6.44704e-19)
(0.285511 0.219169 7.5484e-19)
(0.138977 0.102592 -4.46933e-19)
(0.02878 0.0235939 7.93499e-19)
(0.429852 0.354065 -5.59394e-20)
(0.950252 0.755106 -1.12139e-19)
(1.15676 0.943352 -4.63173e-20)
(1.19198 0.978097 1.6296e-20)
(1.15651 0.978242 3.79415e-19)
(1.0994 0.95044 -2.68103e-19)
(1.03287 0.919937 1.11747e-19)
(0.959486 0.884638 -2.1023e-20)
(0.877302 0.842914 -1.02801e-18)
(0.785873 0.792722 -1.69231e-18)
(0.694655 0.731563 1.04361e-19)
(0.619541 0.666113 0)
(0.563696 0.607621 0)
(0.517174 0.546296 -4.03404e-19)
(0.491714 0.478687 -1.48808e-18)
(0.462677 0.41841 1.18334e-18)
(0.399174 0.314014 7.03172e-19)
(0.287316 0.200332 0)
(0.148508 0.0800868 1.42553e-18)
(0.0226475 0.000131971 -8.48965e-19)
(0.429054 0.367273 3.16078e-20)
(0.943432 0.780616 -2.35939e-20)
(1.14578 0.972573 8.55367e-20)
(1.17981 1.00817 1.53162e-19)
(1.1439 1.00787 1.1937e-19)
(1.08674 0.979372 -7.58369e-20)
(1.0201 0.948352 0)
(0.946428 0.912438 -1.16827e-18)
(0.863341 0.869972 1.25556e-19)
(0.770053 0.819154 0)
(0.675992 0.759346 0)
(0.59426 0.696836 1.53674e-19)
(0.530998 0.62983 1.98356e-19)
(0.494751 0.563374 -4.33795e-19)
(0.461429 0.498524 1.06672e-18)
(0.42293 0.400247 -1.2835e-18)
(0.35981 0.297259 -1.50325e-18)
(0.278813 0.175859 1.32774e-18)
(0.190734 0.109885 -5.09045e-19)
(0.11513 0.0844888 2.98012e-19)
(0.428101 0.379689 -1.28264e-20)
(0.936646 0.804328 0)
(1.13508 0.999948 0)
(1.16803 1.03659 6.18002e-20)
(1.13176 1.03589 -5.00306e-20)
(1.0746 1.00659 -2.0953e-20)
(1.00801 0.97499 4.58875e-19)
(0.934079 0.938532 1.25477e-18)
(0.850403 0.895894 1.89961e-18)
(0.755806 0.845282 -1.24429e-19)
(0.657637 0.784367 2.48622e-19)
(0.572421 0.717856 -1.39928e-18)
(0.508111 0.654613 -1.34995e-18)
(0.447559 0.584949 -2.31937e-19)
(0.407946 0.493552 0)
(0.375949 0.408263 -1.04504e-20)
(0.326395 0.236994 8.17664e-19)
(0.283603 0.0757508 -1.39676e-18)
(0.243375 -0.0619016 1.06977e-18)
(0.0803835 -0.0947507 9.01842e-19)
(0.427129 0.391582 1.89169e-20)
(0.930261 0.826942 -2.47068e-21)
(1.12478 1.02566 6.75476e-21)
(1.15664 1.06298 -3.68897e-20)
(1.12001 1.06192 0)
(1.06288 1.03219 -5.36453e-19)
(0.996272 1.00039 -6.22802e-19)
(0.922164 0.963669 3.31605e-20)
(0.837749 0.920892 -1.00616e-18)
(0.741336 0.870014 -1.22668e-19)
(0.642562 0.810712 1.13936e-19)
(0.554245 0.750597 1.22659e-18)
(0.474173 0.682002 1.31803e-18)
(0.422427 0.604764 2.25127e-19)
(0.37248 0.525935 1.12556e-18)
(0.305278 0.387179 0)
(0.193917 0.225674 0)
(0.0229486 0.239786 9.50479e-19)
(-0.0740489 0.628765 -3.23136e-20)
(0.00369649 1.52246 -1.13292e-18)
(0.425931 0.402836 -5.50634e-21)
(0.923934 0.848122 -4.84302e-20)
(1.11472 1.05002 1.7828e-19)
(1.14554 1.08839 -2.12721e-19)
(1.10858 1.08714 7.01007e-20)
(1.05144 1.05693 -5.7224e-19)
(0.98486 1.02492 0)
(0.910557 0.98821 -1.08142e-18)
(0.825599 0.945778 0)
(0.727946 0.895937 1.82587e-18)
(0.623195 0.837634 -1.30239e-19)
(0.525766 0.773578 1.46031e-19)
(0.45205 0.711666 1.50437e-18)
(0.368782 0.643548 -4.78641e-19)
(0.281303 0.533312 -5.70601e-19)
(0.207662 0.447159 0)
(0.0996937 0.545511 0)
(0.0309264 1.29135 0)
(0.0750638 2.44622 -5.43209e-19)
(0.104156 2.90244 -3.30521e-19)
(0.424612 0.413545 0)
(0.917954 0.868221 0)
(1.10506 1.07289 -5.64143e-20)
(1.13487 1.11195 1.88332e-19)
(1.09756 1.11058 -2.27162e-19)
(1.04046 1.0803 5.40172e-19)
(0.973883 1.04854 7.65714e-20)
(0.899398 1.01202 -5.96178e-20)
(0.813636 0.970129 1.37626e-19)
(0.714364 0.921114 -2.09731e-18)
(0.610834 0.864725 2.44954e-19)
(0.517233 0.809472 1.22833e-18)
(0.41894 0.749216 -1.50452e-18)
(0.34349 0.667645 -1.60208e-18)
(0.271307 0.597483 5.35807e-19)
(0.201675 0.721681 0)
(0.133385 1.52289 7.4636e-19)
(0.132331 2.68159 8.40562e-19)
(0.13981 3.08384 -9.40476e-19)
(0.13072 3.22022 1.02349e-18)
(0.423088 0.423742 0)
(0.912043 0.886933 1.77021e-20)
(1.09566 1.09452 1.7586e-20)
(1.12457 1.13469 -1.73503e-19)
(1.08696 1.13334 2.38443e-19)
(1.02985 1.10287 0)
(0.963273 1.07116 0)
(0.88863 1.03511 0)
(0.802606 0.994047 8.67069e-19)
(0.702706 0.946579 1.05358e-19)
(0.593119 0.892803 0)
(0.484049 0.835997 -1.22839e-18)
(0.40254 0.781365 0)
(0.293697 0.722005 1.14959e-18)
(0.212578 0.794861 -7.74371e-19)
(0.164506 1.45354 -6.18338e-19)
(0.16761 2.67068 -1.45642e-18)
(0.187924 3.12632 -7.82887e-19)
(0.178431 3.26943 -1.12705e-18)
(0.163679 3.31004 8.84272e-19)
(0.421554 0.433147 -1.43552e-20)
(0.906457 0.904614 1.53832e-20)
(1.08669 1.11478 1.53848e-20)
(1.11472 1.15565 1.55006e-19)
(1.07678 1.15441 0)
(1.01972 1.12416 0)
(0.953159 1.09304 0)
(0.878398 1.05747 7.46596e-20)
(0.791816 1.01758 -1.0879e-18)
(0.690451 0.972105 0)
(0.581634 0.920796 0)
(0.485534 0.872825 0)
(0.371687 0.823976 0)
(0.308868 0.810674 8.56087e-19)
(0.277803 1.18043 2.07531e-18)
(0.262744 2.35949 6.11475e-19)
(0.273503 3.08238 1.2774e-18)
(0.267094 3.28742 -1.01764e-18)
(0.217283 3.35428 3.81211e-19)
(0.183794 3.36683 0)
(0.419864 0.44216 1.88711e-20)
(0.900727 0.921469 -8.30168e-20)
(1.07774 1.13452 4.02409e-23)
(1.10502 1.17659 9.68682e-21)
(1.06682 1.17556 -6.4017e-20)
(1.00978 1.14532 6.03859e-19)
(0.943221 1.1144 -5.60738e-20)
(0.868445 1.07964 -1.02842e-18)
(0.78185 1.04086 0)
(0.68037 0.997147 -1.21419e-19)
(0.568977 0.949395 1.10452e-19)
(0.453036 0.901886 0)
(0.369318 0.864801 0)
(0.320923 0.990436 -1.07165e-18)
(0.285701 1.84727 1.60297e-19)
(0.280917 2.93696 -4.92474e-19)
(0.300496 3.29227 1.06291e-18)
(0.273839 3.39243 8.32419e-19)
(0.206699 3.41745 -1.25383e-18)
(0.181227 3.42638 6.27025e-19)
(0.41785 0.451318 4.89269e-20)
(0.894735 0.93883 1.07881e-19)
(1.06842 1.15456 -1.14767e-20)
(1.09494 1.19729 0)
(1.05649 1.19641 0)
(0.999609 1.16646 -4.60178e-19)
(0.933225 1.13628 4.74647e-19)
(0.858545 1.10204 9.26798e-19)
(0.771744 1.06469 5.20722e-20)
(0.669565 1.02377 1.68738e-18)
(0.557568 0.979844 -1.79178e-18)
(0.454538 0.937578 0)
(0.378042 0.9464 0)
(0.344104 1.34848 -7.61986e-19)
(0.346004 2.46729 -8.99455e-19)
(0.38847 3.19931 0)
(0.413822 3.37685 -1.23824e-18)
(0.343792 3.44086 -5.01037e-20)
(0.271689 3.48509 8.5884e-19)
(0.248101 3.51075 -3.58161e-19)
(0.415364 0.460869 -1.00941e-19)
(0.887854 0.956844 -5.81295e-20)
(1.05816 1.17579 0)
(1.08405 1.21972 0)
(1.04549 1.21898 0)
(0.988794 1.18884 0)
(0.922606 1.15864 -5.20271e-19)
(0.848246 1.12519 9.41658e-19)
(0.761802 1.08883 0)
(0.659992 1.04948 -1.54182e-18)
(0.54932 1.00812 3.2457e-18)
(0.438165 0.976184 1.27864e-19)
(0.382027 1.06008 1.59998e-19)
(0.39089 1.73607 1.26642e-18)
(0.413693 2.89033 -7.20478e-19)
(0.450796 3.32577 0)
(0.432563 3.45321 3.74799e-19)
(0.345508 3.54095 9.51324e-20)
(0.265756 3.60712 4.36888e-20)
(0.190255 3.58674 1.71585e-19)
(0.412378 0.47073 5.16578e-20)
(0.88036 0.976025 -8.53099e-20)
(1.0471 1.19788 0)
(1.07234 1.24213 2.69384e-20)
(1.03364 1.24136 -1.46573e-19)
(0.977306 1.21135 0)
(0.911625 1.18181 0)
(0.837687 1.14866 -1.68777e-18)
(0.751684 1.11372 -1.1255e-19)
(0.650555 1.07748 1.5943e-18)
(0.536503 1.04171 -1.55895e-18)
(0.451568 1.02608 8.69942e-19)
(0.418469 1.24165 0)
(0.439152 2.17256 -6.83816e-19)
(0.479643 3.14471 4.29441e-19)
(0.539536 3.43209 3.34205e-19)
(0.533455 3.53071 0)
(0.467988 3.6174 4.97079e-20)