/*--------------------------------*- C++ -*----------------------------------*\
| =========                 |                                                 |
| \\      /  F ield         | OpenFOAM: The Open Source CFD Toolbox           |
|  \\    /   O peration     | Version:  v2012                                 |
|   \\  /    A nd           | Website:  www.openfoam.com                      |
|    \\/     M anipulation  |                                                 |
\*---------------------------------------------------------------------------*/
FoamFile
{
    version     2.0;
    format      ascii;
    class       volScalarField;
    location    "55";
    object      p;
}
// * * * * * * * * * * * * * * * * * * * * * * * * * * * * * * * * * * * * * //

dimensions      [0 2 -2 0 0 0 0];


internalField   nonuniform List<scalar> 
2200
(
0.773467
0.751968
0.73606
0.720392
0.705785
0.693265
0.682911
0.67481
0.669106
0.666166
0.666636
0.670441
0.676793
0.685354
0.696038
0.708806
0.723593
0.739512
0.755552
0.777051
0.705887
0.702628
0.699706
0.69559
0.690125
0.683652
0.677038
0.671085
0.666582
0.664192
0.664684
0.667984
0.673165
0.679624
0.686603
0.693356
0.699019
0.703119
0.705974
0.709333
0.665979
0.6662
0.668251
0.66959
0.66998
0.669127
0.667142
0.664467
0.661932
0.660449
0.661019
0.663477
0.666751
0.669966
0.672302
0.673298
0.673025
0.672024
0.670375
0.670127
0.643457
0.644904
0.647509
0.649976
0.652424
0.654444
0.655602
0.655833
0.655462
0.655174
0.655814
0.657196
0.658397
0.658789
0.65811
0.656439
0.654277
0.652072
0.649457
0.648052
0.629127
0.631101
0.633922
0.636757
0.639612
0.642445
0.644909
0.646775
0.648008
0.64881
0.649541
0.650021
0.649782
0.648674
0.646809
0.644437
0.64189
0.639167
0.636369
0.634445
0.621796
0.623396
0.625595
0.62812
0.630783
0.633449
0.636039
0.638461
0.640478
0.641994
0.642861
0.64289
0.642067
0.640557
0.638665
0.636522
0.63419
0.631847
0.629751
0.628176
0.618359
0.619381
0.620648
0.622511
0.624658
0.62683
0.629025
0.631313
0.633536
0.635389
0.636419
0.636426
0.635657
0.634454
0.633064
0.631514
0.629828
0.628257
0.62714
0.626123
0.615707
0.616377
0.61701
0.618313
0.619929
0.621615
0.623371
0.625304
0.627377
0.629339
0.6306
0.630919
0.630591
0.629975
0.629194
0.62824
0.627183
0.626255
0.625807
0.62513
0.612471
0.612918
0.613313
0.614307
0.615569
0.616953
0.618451
0.620117
0.621973
0.623946
0.62546
0.626252
0.626518
0.626465
0.626184
0.625712
0.625126
0.624587
0.624398
0.623934
0.608408
0.608705
0.609063
0.609932
0.611045
0.612318
0.613755
0.615365
0.61717
0.619183
0.621056
0.622376
0.623153
0.623533
0.623614
0.623472
0.623174
0.622846
0.622716
0.622392
0.603702
0.603903
0.604275
0.605105
0.606195
0.607499
0.609021
0.610762
0.612734
0.614982
0.61726
0.619083
0.62029
0.620994
0.621318
0.621398
0.621267
0.62108
0.620971
0.620735
0.598522
0.598667
0.599039
0.59985
0.601
0.60244
0.604157
0.60615
0.608456
0.611136
0.613926
0.616216
0.617783
0.618754
0.619298
0.619536
0.619602
0.619562
0.619484
0.619297
0.592929
0.593039
0.593418
0.594237
0.595454
0.597048
0.59901
0.601346
0.604096
0.607323
0.610737
0.613579
0.615556
0.616855
0.617653
0.618115
0.618384
0.618467
0.618432
0.618266
0.58692
0.586991
0.587369
0.588215
0.589549
0.591323
0.593547
0.596273
0.599604
0.60357
0.607722
0.611201
0.61366
0.615337
0.616501
0.617262
0.617735
0.617954
0.61796
0.617806
0.5804
0.580437
0.580857
0.581765
0.583243
0.585233
0.587769
0.590956
0.594938
0.599751
0.604833
0.609029
0.612117
0.614347
0.615938
0.617045
0.61777
0.618141
0.618191
0.618038
0.573309
0.573279
0.573698
0.574696
0.576387
0.578644
0.581527
0.58522
0.589925
0.595705
0.601873
0.607111
0.611008
0.613886
0.616016
0.617529
0.618531
0.619057
0.619159
0.619005
0.565277
0.565257
0.565716
0.566831
0.568753
0.571312
0.574649
0.578976
0.584529
0.591456
0.598953
0.605445
0.61039
0.614073
0.616821
0.618807
0.620131
0.620822
0.620979
0.620816
0.556239
0.556263
0.55669
0.557915
0.560138
0.563128
0.567085
0.572235
0.57888
0.58725
0.596376
0.604264
0.610362
0.615006
0.618479
0.620973
0.622656
0.623524
0.623734
0.623557
0.545739
0.545717
0.546261
0.54771
0.550329
0.553929
0.558725
0.564971
0.573013
0.583116
0.59415
0.603748
0.611146
0.616789
0.621017
0.624138
0.626219
0.627265
0.627526
0.627331
0.533316
0.533249
0.533924
0.535749
0.538899
0.54328
0.549171
0.556832
0.566672
0.578967
0.592311
0.603883
0.612761
0.619529
0.62464
0.628404
0.63091
0.632144
0.632447
0.632226
0.518624
0.518519
0.519291
0.521498
0.525394
0.530842
0.538165
0.547722
0.559944
0.574987
0.590974
0.604676
0.615212
0.623253
0.629353
0.633859
0.636825
0.638224
0.63856
0.63831
0.500668
0.500584
0.501582
0.504335
0.509222
0.516134
0.525445
0.537508
0.552723
0.571035
0.590133
0.606242
0.618562
0.628023
0.635227
0.640545
0.643991
0.645564
0.645915
0.64563
0.478472
0.478326
0.479634
0.483232
0.489641
0.498715
0.510761
0.526112
0.544976
0.567128
0.589737
0.608623
0.623
0.633981
0.64235
0.648532
0.652432
0.65414
0.654483
0.654162
0.449822
0.449828
0.451907
0.456966
0.465674
0.477863
0.493673
0.513167
0.536343
0.562909
0.589597
0.611667
0.628331
0.641021
0.650697
0.657726
0.662038
0.663865
0.664171
0.663812
0.412013
0.412251
0.415752
0.423621
0.436253
0.453285
0.474313
0.49918
0.527704
0.559427
0.590514
0.61577
0.634753
0.649224
0.660221
0.66816
0.672809
0.674638
0.674863
0.674474
0.361618
0.361989
0.368925
0.382097
0.401162
0.425354
0.453416
0.484988
0.519791
0.557232
0.592827
0.621333
0.642599
0.658768
0.671079
0.679687
0.684356
0.685906
0.685965
0.685623
0.295185
0.297996
0.313012
0.334324
0.362296
0.395449
0.431693
0.470744
0.512463
0.556271
0.597141
0.629333
0.653404
0.671789
0.68554
0.695038
0.699753
0.700957
0.70091
0.700736
0.219672
0.22906
0.254091
0.285234
0.323322
0.365542
0.409993
0.45679
0.505875
0.556529
0.603127
0.639933
0.667573
0.688444
0.70428
0.714743
0.719406
0.720173
0.720111
0.720067
0.152114
0.166765
0.198069
0.23805
0.285659
0.336655
0.389113
0.443518
0.499637
0.556792
0.608983
0.650438
0.681268
0.704713
0.722082
0.733421
0.738199
0.738807
0.739012
0.738987
0.100575
0.113709
0.150297
0.196367
0.251282
0.309738
0.369508
0.431106
0.494132
0.557935
0.616115
0.661292
0.694858
0.720307
0.73903
0.751266
0.756297
0.757454
0.757582
0.757622
0.0579999
0.0703949
0.110706
0.160703
0.221087
0.285534
0.351771
0.419973
0.48959
0.559582
0.62265
0.671445
0.707841
0.735133
0.755339
0.768135
0.773891
0.775332
0.775409
0.775493
0.0215771
0.034232
0.0771988
0.130071
0.194827
0.264153
0.335911
0.409818
0.485071
0.560408
0.628175
0.68092
0.719557
0.748547
0.770232
0.783696
0.789805
0.791446
0.791568
0.791643
-0.0101951
0.00267287
0.0478013
0.103271
0.171684
0.245032
0.321399
0.400109
0.480308
0.560962
0.633776
0.689476
0.730263
0.760823
0.783281
0.797382
0.803936
0.80575
0.80595
0.806026
-0.0385047
-0.025598
0.0212317
0.0791848
0.150707
0.227452
0.307777
0.390758
0.475634
0.561224
0.637952
0.696635
0.739627
0.771261
0.79448
0.809298
0.816063
0.818076
0.818326
0.818371
-0.0643336
-0.0514132
-0.00333506
0.0569891
0.131259
0.210995
0.294813
0.381648
0.470761
0.560681
0.641393
0.703306
0.74776
0.780599
0.804154
0.819368
0.826503
0.828674
0.828981
0.828998
-0.0884497
-0.0752132
-0.0263453
0.0361689
0.112881
0.195317
0.282269
0.372519
0.465388
0.559404
0.644264
0.708787
0.754929
0.78875
0.81281
0.82829
0.835536
0.837837
0.838144
0.83813
-0.111118
-0.0976547
-0.047982
0.0164238
0.0952558
0.180145
0.269876
0.363111
0.459386
0.557345
0.646173
0.71346
0.761483
0.796286
0.820769
0.836032
0.843478
0.845615
0.846025
0.84589
-0.132472
-0.118963
-0.068511
-0.00248296
0.0781494
0.165191
0.257375
0.353315
0.452781
0.55445
0.647092
0.717657
0.767758
0.803338
0.82807
0.843139
0.850239
0.852501
0.852777
0.852641
-0.152894
-0.139251
-0.0881413
-0.020767
0.061383
0.150319
0.244706
0.343137
0.445522
0.550576
0.647082
0.721201
0.773474
0.810367
0.835025
0.849582
0.856491
0.858534
0.858797
0.858694
-0.172799
-0.158663
-0.107095
-0.0385714
0.0448958
0.1355
0.231852
0.33253
0.437519
0.545817
0.646393
0.724201
0.779243
0.817447
0.842069
0.856058
0.862313
0.864068
0.864264
0.864168
-0.192393
-0.177493
-0.125506
-0.0559569
0.0286604
0.120736
0.21883
0.321511
0.428896
0.540357
0.644833
0.726476
0.784867
0.825026
0.849867
0.862792
0.868131
0.869152
0.869252
0.869195
-0.211535
-0.195886
-0.143466
-0.0729517
0.0126896
0.106056
0.205667
0.310138
0.419738
0.53406
0.642165
0.728076
0.790266
0.833082
0.858747
0.87068
0.874049
0.873916
0.873789
0.87366
-0.230162
-0.213906
-0.160973
-0.0895373
-0.00299804
0.091475
0.192397
0.298464
0.410069
0.526913
0.638407
0.728712
0.795189
0.841733
0.86934
0.880224
0.881041
0.878643
0.878259
0.879122
-0.248162
-0.231457
-0.177996
-0.105702
-0.0183704
0.0770465
0.179081
0.286548
0.399944
0.518989
0.633514
0.728138
0.799516
0.850639
0.881717
0.893028
0.890944
0.88438
0.879368
0.878094
-0.265562
-0.24848
-0.194471
-0.121399
-0.0333794
0.0628264
0.165791
0.274456
0.389391
0.510316
0.627403
0.726017
0.802522
0.859547
0.895774
0.909898
0.908512
0.897081
0.896375
0.900543
-0.282317
-0.264876
-0.210352
-0.136592
-0.0479721
0.0488948
0.152619
0.26226
0.378459
0.500977
0.620205
0.722282
0.803959
0.86733
0.910579
0.930808
0.932086
0.903123
0.863532
0.828584
-0.298407
-0.280684
-0.225664
-0.151332
-0.0622309
0.0351391
0.139422
0.249778
0.366926
0.490738
0.611701
0.716464
0.802608
0.873017
0.925322
0.954861
0.971101
0.950325
0.967386
1.02692
-0.313761
-0.295916
-0.240504
-0.165765
-0.0763365
0.0213404
0.125928
0.236679
0.354386
0.479073
0.601278
0.707816
0.797495
0.87361
0.931742
0.965839
0.974514
0.951219
0.90921
0.924657
-0.328374
-0.310577
-0.254822
-0.179826
-0.0902075
0.0075892
0.112254
0.223112
0.340999
0.466047
0.588831
0.696102
0.786558
0.86459
0.923616
0.95748
0.943275
0.888227
0.823727
0.811265
-0.342212
-0.324622
-0.268619
-0.193529
-0.103855
-0.00611514
0.0984217
0.209118
0.326804
0.451661
0.574281
0.680999
0.769666
0.843267
0.896856
0.903833
0.867796
0.789966
0.714982
0.691989
-0.355329
-0.338077
-0.281904
-0.206883
-0.117296
-0.0197865
0.0844325
0.194715
0.31183
0.435931
0.557546
0.662281
0.745398
0.807542
0.83638
0.822792
0.763592
0.661415
0.573699
0.551115
-0.368165
-0.351305
-0.295068
-0.220267
-0.130889
-0.0337336
0.0700244
0.17968
0.295889
0.418682
0.538375
0.639346
0.715108
0.76137
0.75622
0.720946
0.609098
0.486187
0.378451
0.350955
-0.381613
-0.36515
-0.308804
-0.234281
-0.145191
-0.0484338
0.0547848
0.163663
0.278705
0.399711
0.516527
0.611864
0.680433
0.702285
0.668825
0.580512
0.424167
0.27121
0.141609
0.113727
-0.396182
-0.37994
-0.323435
-0.249183
-0.160389
-0.0640177
0.0386257
0.14662
0.260276
0.379005
0.491907
0.580657
0.638756
0.632345
0.580079
0.43009
0.230357
0.0178272
-0.162264
-0.210925
-0.412014
-0.395867
-0.339016
-0.264964
-0.176449
-0.0804578
0.0215667
0.128577
0.240661
0.356675
0.464543
0.547296
0.590588
0.552497
0.465425
0.27776
0.0469727
-0.241288
-0.562051
-0.710205
-0.429158
-0.41292
-0.355679
-0.281759
-0.193453
-0.0978255
0.00354262
0.109483
0.219828
0.332732
0.434759
0.511162
0.536712
0.468211
0.332063
0.127131
-0.106242
-0.44926
-1.03495
-1.60634
-0.447732
-0.431324
-0.373484
-0.299582
-0.211399
-0.116113
-0.0154163
0.0894076
0.197927
0.307614
0.403745
0.472206
0.479074
0.39407
0.203308
-0.0294519
-0.231445
-0.465141
-1.01889
-2.53037
-0.467716
-0.450992
-0.392555
-0.318627
-0.230489
-0.135528
-0.0355458
0.0680806
0.17463
0.280925
0.371111
0.43004
0.41652
0.336121
0.11053
-0.126844
-0.273917
-0.310458
-0.299358
-0.686275
-0.489084
-0.47228
-0.413042
-0.339116
-0.25108
-0.156562
-0.0574731
0.0447191
0.148987
0.251318
0.33595
0.384544
0.355211
0.286832
0.0608303
-0.140523
-0.250622
-0.258074
-0.204655
-0.244723
-0.511639
-0.494781
-0.434976
-0.361211
-0.273318
-0.179358
-0.0813563
0.0191627
0.120802
0.218644
0.298355
0.337121
0.30131
0.233674
0.0291873
-0.130658
-0.212227
-0.219967
-0.267959
-0.27197
-0.535546
-0.518667
-0.458232
-0.384786
-0.297117
-0.203924
-0.107245
-0.00866512
0.0900451
0.183249
0.258247
0.287603
0.254599
0.173224
0.00129692
-0.120586
-0.190362
-0.167443
-0.187832
-0.189413
-0.560324
-0.543261
-0.482762
-0.409894
-0.322441
-0.230206
-0.13506
-0.0386343
0.0568427
0.145492
0.215834
0.234512
0.213925
0.105796
-0.0333929
-0.115611
-0.153978
-0.201758
-0.176491
-0.184968
-0.585807
-0.568406
-0.508334
-0.436179
-0.348928
-0.258024
-0.164622
-0.0705578
0.0213198
0.105732
0.172138
0.180405
0.171466
0.0453992
-0.0703303
-0.134138
-0.110863
-0.170662
-0.151552
-0.1564
-0.610978
-0.593422
-0.534828
-0.463487
-0.376415
-0.287168
-0.195644
-0.104071
-0.0162625
0.0643661
0.128108
0.128945
0.11963
-0.0061664
-0.096909
-0.148248
-0.136788
-0.151509
-0.156998
-0.155138
-0.635592
-0.61815
-0.561485
-0.490859
-0.404327
-0.317237
-0.227729
-0.138811
-0.0553747
0.0217058
0.0840729
0.0812234
0.0625893
-0.0489495
-0.111014
-0.141565
-0.180526
-0.152374
-0.158033
-0.152534
-0.658508
-0.6418
-0.587157
-0.51768
-0.432565
-0.347747
-0.260343
-0.174184
-0.0951624
-0.0219177
0.0399859
0.0381276
0.00558316
-0.0851521
-0.124483
-0.114843
-0.187303
-0.132681
-0.147651
-0.140076
-0.679168
-0.663587
-0.610901
-0.542619
-0.460407
-0.377828
-0.292816
-0.209655
-0.134707
-0.0661242
-0.00497037
-0.00288469
-0.0397182
-0.104371
-0.134893
-0.0944559
-0.138767
-0.120377
-0.126925
-0.123998
-0.695866
-0.681942
-0.63186
-0.565586
-0.487106
-0.406619
-0.324332
-0.244345
-0.173005
-0.109978
-0.0501644
-0.0422412
-0.0728552
-0.107209
-0.128256
-0.105245
-0.118047
-0.119481
-0.120503
-0.120821
-0.70785
-0.696062
-0.649204
-0.585366
-0.510655
-0.433036
-0.353906
-0.277418
-0.209276
-0.152323
-0.094337
-0.0792313
-0.100995
-0.103974
-0.118821
-0.131861
-0.123244
-0.128907
-0.124189
-0.125061
-0.713605
-0.70425
-0.661612
-0.601165
-0.53029
-0.456047
-0.380483
-0.307631
-0.242528
-0.19125
-0.135225
-0.116053
-0.133953
-0.109355
-0.102619
-0.133102
-0.115638
-0.135933
-0.129123
-0.133097
-0.713216
-0.705992
-0.66766
-0.610951
-0.544195
-0.474181
-0.402773
-0.333774
-0.271847
-0.224771
-0.171041
-0.152666
-0.172587
-0.131221
-0.0552352
-0.0896447
-0.0754372
-0.0995523
-0.106424
-0.115635
-0.705565
-0.698221
-0.665093
-0.613883
-0.552123
-0.486581
-0.419456
-0.354174
-0.295287
-0.25077
-0.200714
-0.188933
-0.208731
-0.22013
-0.173117
-0.222758
-0.234426
-0.231068
-0.229277
-0.227255
-0.685628
-0.677319
-0.652114
-0.608086
-0.552257
-0.491976
-0.429572
-0.367534
-0.310539
-0.266808
-0.220312
-0.21055
-0.270007
-0.416704
-0.676379
-0.803157
-0.838025
-0.808087
-0.740595
-0.686426
-0.644307
-0.636473
-0.626609
-0.594254
-0.545769
-0.490571
-0.432478
-0.372533
-0.315134
-0.269109
-0.224036
-0.197924
-0.301208
-0.500381
-0.753102
-0.854445
-0.846181
-0.77384
-0.717684
-0.68167
-0.602221
-0.599195
-0.598235
-0.572842
-0.532889
-0.483825
-0.429046
-0.369416
-0.307925
-0.254366
-0.202415
-0.132829
-0.0915426
-0.0463523
-0.0327748
0.0418572
0.140577
0.210212
0.275041
0.327196
-0.57906
-0.580378
-0.571385
-0.554421
-0.521107
-0.474722
-0.419947
-0.359251
-0.290682
-0.219535
-0.148545
-0.0108889
0.168265
0.46512
0.758381
1.0032
1.17718
1.27658
1.31911
1.33953
-0.547762
-0.548
-0.543941
-0.539206
-0.510876
-0.466975
-0.411012
-0.346637
-0.270334
-0.180465
-0.0842656
0.0646854
0.302682
0.649178
0.990408
1.27265
1.47002
1.58617
1.64058
1.66072
-0.528379
-0.526897
-0.529143
-0.523291
-0.500743
-0.459011
-0.402123
-0.333859
-0.252635
-0.151995
-0.0424012
0.0852043
0.331407
0.645263
0.95608
1.22275
1.42428
1.54732
1.60274
1.61895
-0.513205
-0.511712
-0.515312
-0.508014
-0.494523
-0.455053
-0.396445
-0.324461
-0.240378
-0.137064
-0.0269911
0.0678579
0.280329
0.550182
0.811156
1.03688
1.21728
1.32633
1.37467
1.38756
-0.492742
-0.491493
-0.491311
-0.484663
-0.485549
-0.451446
-0.393969
-0.320366
-0.236212
-0.137382
-0.0330702
0.0368989
0.203649
0.430411
0.641709
0.819776
0.963731
1.0515
1.08959
1.09916
-0.489873
-0.488034
-0.483352
-0.481716
-0.48317
-0.450265
-0.392988
-0.319055
-0.236763
-0.147308
-0.0491436
0.0073305
0.128957
0.314415
0.482072
0.617425
0.725294
0.792863
0.82208
0.82964
-0.506429
-0.505068
-0.503268
-0.512923
-0.504005
-0.46132
-0.394984
-0.317532
-0.236971
-0.158362
-0.0665294
-0.0159615
0.0677019
0.215169
0.345833
0.446537
0.524624
0.574731
0.595481
0.599681
-0.528161
-0.529891
-0.534494
-0.543462
-0.529238
-0.47464
-0.394119
-0.312369
-0.23309
-0.164785
-0.0804375
-0.0335156
0.0212602
0.136399
0.235243
0.308041
0.364322
0.401029
0.415376
0.42011
-0.511945
-0.51567
-0.524344
-0.53458
-0.516657
-0.455809
-0.376702
-0.297723
-0.221903
-0.163009
-0.0891844
-0.045525
-0.0111954
0.0774177
0.150359
0.202192
0.243726
0.273605
0.283709
0.286423
-0.415743
-0.420997
-0.432049
-0.438072
-0.426104
-0.382823
-0.325431
-0.264138
-0.200666
-0.151364
-0.0917849
-0.0534078
-0.0302903
0.0376547
0.0902519
0.126604
0.157526
0.17649
0.185172
0.187745
-0.269754
-0.273781
-0.278453
-0.28304
-0.278523
-0.262386
-0.237787
-0.206127
-0.165362
-0.129451
-0.0874069
-0.0567028
-0.0392407
0.0128024
0.0491103
0.0745152
0.0942481
0.105147
0.109723
0.1107
-0.135016
-0.136842
-0.140161
-0.145475
-0.148076
-0.149287
-0.147265
-0.138941
-0.12086
-0.101367
-0.0765828
-0.0546648
-0.0398082
-0.00362658
0.0206382
0.0368995
0.0478851
0.053197
0.0543169
0.0537162
-0.0364173
-0.0374163
-0.0396728
-0.0460284
-0.0564246
-0.0676958
-0.0765475
-0.0809558
-0.0784253
-0.0729873
-0.0611343
-0.0480727
-0.0362835
-0.0138373
0.0006866
0.00956384
0.0144507
0.0154125
0.0144209
0.0131763
0.0211417
0.0203442
0.0184354
0.0118641
-0.000925483
-0.0163983
-0.0301077
-0.0403745
-0.0456378
-0.0487907
-0.0447656
-0.0384394
-0.0316656
-0.0197423
-0.0128413
-0.00957981
-0.00855964
-0.00988543
-0.0119598
-0.0134149
0.0483665
0.0477804
0.0460869
0.0400989
0.0282092
0.0126234
-0.00231231
-0.0150785
-0.023797
-0.0307353
-0.0304209
-0.0286787
-0.027466
-0.0227475
-0.0210849
-0.0211943
-0.0225213
-0.0249446
-0.0270929
-0.0284902
0.0573898
0.0569263
0.0555399
0.0506075
0.0406712
0.0271337
0.0132065
8.19493e-05
-0.0098151
-0.0182574
-0.0194451
-0.0204802
-0.0231509
-0.0226962
-0.0239323
-0.0259327
-0.0285588
-0.0314104
-0.0334334
-0.0347121
0.0566588
0.0563168
0.0552327
0.0514491
0.0437647
0.0329768
0.0211657
0.00903815
-0.000649222
-0.00969399
-0.0118891
-0.0141248
-0.0182569
-0.0198105
-0.0225835
-0.0258292
-0.0289781
-0.0317416
-0.0335384
-0.0346617
0.0513985
0.0511576
0.0503394
0.0475396
0.0418663
0.0337274
0.0243152
0.0140281
0.00556174
-0.00336773
-0.00652441
-0.00931153
-0.0132827
-0.0154021
-0.0188653
-0.0224749
-0.0256703
-0.0281442
-0.0295961
-0.0305728
0.0445709
0.0444253
0.0438536
0.0418926
0.037852
0.0319123
0.0247259
0.016499
0.00962194
0.0012206
-0.00227617
-0.00522317
-0.00857327
-0.0104927
-0.0140807
-0.0175864
-0.0204469
-0.0225399
-0.0235955
-0.0244107
0.0373494
0.0372631
0.0368512
0.0354812
0.0326723
0.0284813
0.0232163
0.016908
0.0117624
0.00445293
0.00128038
-0.00126926
-0.00415237
-0.00618148
-0.00938711
-0.0122379
-0.0144822
-0.0160356
-0.0166502
-0.0173415
0.0305556
0.030503
0.0302288
0.0292797
0.0272905
0.0242528
0.0203607
0.01551
0.0119888
0.0062383
0.00390921
0.00205654
-0.000370731
-0.00253369
-0.00525923
-0.00738195
-0.00895042
-0.00989149
-0.0102137
-0.0108453
0.0243966
0.0243804
0.0242121
0.0236028
0.0222737
0.0201006
0.0172161
0.013425
0.0110399
0.00669769
0.00530766
0.00400645
0.00200982
0.00034327
-0.00174969
-0.00341828
-0.00453425
-0.00518465
-0.00534273
-0.00587909
0.018643
0.0186203
0.0185109
0.0181141
0.0172694
0.0158925
0.0140025
0.01123
0.00968943
0.00644129
0.00557508
0.00464753
0.00304043
0.00173642
0.000271421
-0.000741583
-0.00142678
-0.00188474
-0.00200448
-0.00248063
0.0135324
0.0135001
0.0134172
0.0132017
0.0127137
0.011881
0.010782
0.00888296
0.00803967
0.00551831
0.00495931
0.00435593
0.00316571
0.00221319
0.00107783
0.000776702
0.000569712
0.000367663
0.000344917
-9.12515e-05
0.00913222
0.00910059
0.00904805
0.00893383
0.0086993
0.00826447
0.00766669
0.00633007
0.00603294
0.00411147
0.00395789
0.00353181
0.00246948
0.0020832
0.00126211
0.00136751
0.00154822
0.00158763
0.00159684
0.00113631
0.0052207
0.00518848
0.00517523
0.00512984
0.00501794
0.00476219
0.00456285
0.00368086
0.00381342
0.00240652
0.002534
0.00248719
0.00162398
0.00167728
0.00117082
0.00115624
0.00137257
0.00144382
0.00158845
0.00125777
0.00184337
0.00183339
0.00185336
0.00186767
0.00183608
0.00165748
0.00167978
0.0011699
0.0015235
0.000717808
0.000968165
0.00129665
0.000877032
0.00110404
0.000383671
-0.000112331
-0.000710234
-0.0012025
-0.000912382
-0.00092594
-1.07469
-0.235852
0.0341705
0.310084
0.491244
0.646726
0.772264
0.900285
1.04134
1.12425
-0.0953405
0.310927
0.327034
0.515037
0.638453
0.749202
0.844452
0.929373
0.956675
0.914755
0.280781
0.494268
0.528995
0.66522
0.750747
0.830237
0.895824
0.945065
0.947085
0.96123
0.509697
0.652291
0.687228
0.788683
0.845477
0.902904
0.947594
0.979872
0.988893
1.01259
0.687223
0.788348
0.818088
0.885452
0.929868
0.970725
1.00277
1.02701
1.03676
1.06835
0.830223
0.898878
0.929168
0.971934
1.00795
1.03801
1.06225
1.08297
1.09708
1.12538
0.949209
0.999688
1.02522
1.05314
1.08074
1.10448
1.12442
1.14365
1.15852
1.18504
1.05288
1.08984
1.11089
1.13151
1.15227
1.17164
1.18903
1.20713
1.22201
1.24568
1.1468
1.17588
1.19221
1.20746
1.22355
1.2396
1.25515
1.27206
1.28568
1.308
1.23502
1.25547
1.27032
1.28347
1.29704
1.31081
1.32431
1.3389
1.35045
1.37009
1.32044
1.33623
1.35005
1.36186
1.37378
1.38541
1.39655
1.40823
1.41591
1.43271
1.40567
1.41821
1.43192
1.44367
1.45431
1.46411
1.47293
1.4812
1.48476
1.496
1.49442
1.50524
1.51871
1.52825
1.53582
1.5431
1.55029
1.55678
1.55787
1.56524
1.59283
1.59744
1.60563
1.61038
1.61377
1.61826
1.62425
1.63193
1.63582
1.6457
1.70614
1.69303
1.68574
1.68002
1.67729
1.67864
1.68498
1.69735
1.71217
1.74183
1.82813
1.77209
1.74107
1.72387
1.71565
1.71559
1.72442
1.74402
1.77584
1.8451
)
;

boundaryField
{
    wall-4
    {
        type            zeroGradient;
    }
    pressure-outlet-7
    {
        type            fixedValue;
        value           uniform 0;
    }
    velocity-inlet-6
    {
        type            zeroGradient;
    }
    velocity-inlet-5
    {
        type            zeroGradient;
    }
    frontAndBackPlanes
    {
        type            empty;
    }
}


// ************************************************************************* //
