/*--------------------------------*- C++ -*----------------------------------*\
| =========                 |                                                 |
| \\      /  F ield         | OpenFOAM: The Open Source CFD Toolbox           |
|  \\    /   O peration     | Version:  v2012                                 |
|   \\  /    A nd           | Website:  www.openfoam.com                      |
|    \\/     M anipulation  |                                                 |
\*---------------------------------------------------------------------------*/
FoamFile
{
    version     2.0;
    format      ascii;
    class       surfaceScalarField;
    location    "55";
    object      phi;
}
// * * * * * * * * * * * * * * * * * * * * * * * * * * * * * * * * * * * * * //

dimensions      [0 3 -1 0 0 0 0];
oriented        oriented;


internalField   nonuniform List<scalar> 
4262
(
0.10714
0.470849
0.0955719
0.705154
0.0693961
0.858479
0.0474163
1.02074
0.0310568
1.21488
0.0198319
1.44944
0.0124111
1.73328
0.00719833
2.07625
0.00326703
2.48917
-0.000433999
2.98599
-0.00407794
2.98594
-0.00786839
2.48903
-0.0128883
2.07606
-0.0200782
1.73305
-0.0310818
1.44922
-0.0471765
1.21461
-0.0689361
1.02052
-0.0952043
0.858571
-0.107069
0.705451
0.470919
0.112879
0.357969
0.135307
0.682725
0.120411
0.873376
0.097826
1.04333
0.074567
1.23813
0.0528579
1.47115
0.0344646
1.75168
0.0202599
2.09045
0.00896897
2.50047
-0.00117056
2.99613
-0.011323
2.99609
-0.0225337
2.50024
-0.0366008
2.09012
-0.0548496
1.7513
-0.0765994
1.47097
-0.100282
1.23829
-0.123426
1.04367
-0.136978
0.872123
-0.11355
0.682023
0.357369
0.0920381
0.265931
0.12496
0.649804
0.121089
0.877246
0.104858
1.05956
0.0862055
1.25679
0.0670871
1.49027
0.0481412
1.77062
0.0300697
2.10853
0.0134996
2.51704
-0.0024115
3.01204
-0.0180067
3.01168
-0.0340603
2.5163
-0.0516149
2.10768
-0.0700736
1.76976
-0.0884223
1.48932
-0.105677
1.25555
-0.119832
1.05782
-0.125203
0.877494
-0.0923266
0.649146
0.265043
0.064054
0.201877
0.104951
0.608907
0.106751
0.875446
0.0953709
1.07094
0.0814481
1.27071
0.0666966
1.50502
0.0505709
1.78675
0.0334266
2.12567
0.0157815
2.53468
-0.00290585
3.03073
-0.0215325
3.03031
-0.0388676
2.53363
-0.055325
2.12414
-0.0706228
1.78506
-0.0844996
1.5032
-0.0982088
1.26926
-0.109966
1.06958
-0.107014
0.874542
-0.0648978
0.60703
0.200145
0.0374641
0.164413
0.0806729
0.565698
0.09096
0.865159
0.0837276
1.07817
0.0711267
1.28331
0.0593017
1.51685
0.0463459
1.79971
0.0314261
2.14059
0.0144087
2.5517
-0.00475295
3.04989
-0.023311
3.04887
-0.039195
2.54952
-0.0531555
2.1381
-0.065313
1.79722
-0.0766008
1.51449
-0.0885371
1.28119
-0.0949343
1.07598
-0.0831205
0.862728
-0.0383641
0.562274
0.161781
0.0194713
0.144942
0.0572599
0.52791
0.07272
0.849699
0.0706577
1.08023
0.061864
1.2921
0.0509655
1.52775
0.0397579
1.81091
0.0271499
2.1532
0.0122243
2.56662
-0.00526217
3.06738
-0.0226474
3.06625
-0.0370141
2.56388
-0.0485166
2.1496
-0.0585523
1.80725
-0.0684782
1.52441
-0.0762084
1.28892
-0.0770735
1.07684
-0.0599616
0.845616
-0.0203634
0.522675
0.141417
0.0106539
0.134288
0.0424217
0.496142
0.0585595
0.833561
0.0588696
1.07992
0.0527692
1.2982
0.0434386
1.53708
0.0330693
1.82128
0.0216926
2.16457
0.00834321
2.57997
-0.00775011
3.08347
-0.0231143
3.08162
-0.0350176
2.57579
-0.0449379
2.15952
-0.0537179
1.81603
-0.061542
1.53224
-0.0660656
1.29345
-0.0641567
1.07493
-0.0458317
0.827291
-0.0116807
0.488524
0.129737
0.00658585
0.127702
0.0330153
0.469713
0.0493223
0.817254
0.0508517
1.0784
0.0457874
1.30327
0.0374858
1.54538
0.0278871
1.83088
0.0169853
2.17548
0.00494574
2.59201
-0.00876773
3.09719
-0.0222231
3.09507
-0.0331678
2.58673
-0.0424123
2.16876
-0.0502007
1.82382
-0.0567863
1.53882
-0.0599942
1.29666
-0.056322
1.07126
-0.0371938
0.808163
-0.00786614
0.459197
0.12187
0.00474399
0.122958
0.0266554
0.447801
0.042523
0.801386
0.0446872
1.07623
0.0400874
1.30787
0.0324506
1.55302
0.0233804
1.83995
0.0129377
2.18592
0.00125109
2.6037
-0.0119594
3.1104
-0.0239866
3.1071
-0.0336923
2.59644
-0.0418634
2.17693
-0.048613
1.83057
-0.0539705
1.54418
-0.0562965
1.29898
-0.0513925
1.06636
-0.0318514
0.788622
-0.00632377
0.433669
0.115547
0.00379799
0.11916
0.0218498
0.429749
0.0370895
0.786146
0.0398544
1.07347
0.0354648
1.31226
0.0280926
1.56039
0.0193254
1.84872
0.00925725
2.19599
-0.00197892
2.61494
-0.0138982
3.12232
-0.0252502
3.11845
-0.0346292
2.60582
-0.0421059
2.18441
-0.0482329
1.8367
-0.0530731
1.54902
-0.0543642
1.30027
-0.0479966
1.05999
-0.0281252
0.76875
-0.0057141
0.411258
0.109833
0.00306621
0.116094
0.0176108
0.415205
0.0316382
0.772119
0.0347262
1.07038
0.0306871
1.3163
0.0236113
1.56746
0.0151558
1.85717
0.00538657
2.20576
-0.00579758
2.62612
-0.0181529
3.13467
-0.029038
3.12934
-0.0370936
2.61387
-0.0436581
2.19098
-0.0489496
1.84199
-0.0527508
1.55282
-0.0529479
1.30047
-0.0453143
1.05236
-0.0253808
0.748817
-0.00545808
0.391335
0.104374
0.00241289
0.113681
0.0139742
0.403643
0.0266989
0.759394
0.0299414
1.06714
0.0260406
1.3202
0.019061
1.57444
0.0105939
1.86564
0.000884514
2.21547
-0.00985262
2.63686
-0.0214603
3.14628
-0.0319173
3.13979
-0.0400186
2.62197
-0.0458352
2.19679
-0.0501885
1.84634
-0.0529542
1.55559
-0.0523531
1.29987
-0.0432677
1.04327
-0.0232991
0.728848
-0.0052654
0.373301
0.099109
0.00171904
0.111962
0.0106099
0.394753
0.0214792
0.748525
0.0242001
1.06441
0.0203018
1.3241
0.0134753
1.58127
0.00508057
1.87404
-0.00457805
2.22512
-0.0155597
2.64784
-0.0274208
3.15814
-0.0374387
3.14981
-0.0440112
2.62855
-0.0487245
2.20151
-0.0522986
1.84992
-0.0540201
1.55731
-0.0525944
1.29844
-0.0422515
1.03293
-0.0220649
0.708662
-0.00521212
0.356449
0.0938969
0.000898221
0.111064
0.00727809
0.388373
0.0166024
0.739201
0.0189935
1.06202
0.0146727
1.32842
0.00737126
1.58857
-0.00120474
1.88261
-0.0108526
2.23477
-0.0213525
2.65834
-0.0324842
3.16927
-0.0416768
3.15901
-0.0479499
2.63482
-0.0519891
2.20554
-0.0546789
1.85261
-0.0555205
1.55815
-0.0530151
1.29594
-0.0415284
1.02144
-0.0211439
0.688277
-0.00513453
0.340439
0.0887624
0.000182002
0.110882
0.00435253
0.384202
0.0112391
0.732314
0.0123455
1.06092
0.00763982
1.33312
0.000140586
1.59607
-0.00899916
1.89175
-0.0191715
2.24494
-0.0301053
2.66927
-0.041101
3.18027
-0.0495243
3.16743
-0.0541253
2.63942
-0.056843
2.20826
-0.0588465
1.85461
-0.0588753
1.55818
-0.0549135
1.29198
-0.0418237
1.00835
-0.0208356
0.667289
-0.00516206
0.324766
0.0836003
-0.000778462
0.11166
0.000655299
0.382768
0.00557836
0.727391
0.00607851
1.06042
0.000588665
1.33861
-0.00798465
1.60464
-0.0177103
1.90148
-0.0279712
2.2552
-0.0385066
2.67981
-0.0487789
3.19054
-0.0562212
3.17487
-0.0604501
2.64365
-0.0626511
2.21046
-0.0636942
1.85565
-0.0628049
1.55729
-0.0574505
1.28662
-0.0426842
0.993585
-0.0209762
0.645581
-0.00530116
0.309091
0.0782991
-0.00160093
0.113261
-0.00236791
0.383535
-0.000275791
0.725299
-0.00187142
1.06201
-0.00815498
1.3449
-0.0170798
1.61357
-0.0275558
1.91195
-0.0390449
2.26669
-0.0508126
2.69158
-0.0612379
3.20097
-0.0678406
3.18147
-0.0708773
2.64669
-0.0716923
2.21128
-0.0712946
1.85525
-0.0687021
1.5547
-0.0613443
1.27926
-0.0444946
0.976735
-0.0216513
0.622738
-0.00554362
0.292983
0.0727555
-0.00296519
0.116226
-0.00609077
0.386661
-0.00755998
0.726768
-0.0103961
1.06485
-0.017629
1.35213
-0.0278139
1.62375
-0.0392645
1.9234
-0.0512529
2.27868
-0.0629457
2.70327
-0.0729874
3.21101
-0.079025
3.18751
-0.0810109
2.64867
-0.0804233
2.21069
-0.0791484
1.85398
-0.0756206
1.55117
-0.0663141
1.26996
-0.0472008
0.957622
-0.0228451
0.598382
-0.00591363
0.276052
0.0668419
-0.00426239
0.120489
-0.0103389
0.392738
-0.0152216
0.731651
-0.0211298
1.07076
-0.029675
1.36067
-0.0408551
1.63493
-0.0534778
1.93603
-0.0671034
2.29231
-0.0804156
2.71658
-0.0909225
3.22151
-0.0954029
3.19199
-0.0957703
2.64904
-0.0945722
2.20949
-0.0909882
1.8504
-0.0848125
1.54499
-0.0728539
1.258
-0.050925
0.935693
-0.0245168
0.571974
-0.00637322
0.257908
0.0604687
-0.0057335
0.126222
-0.0153936
0.402398
-0.0242494
0.740506
-0.0330408
1.07955
-0.0436297
1.37126
-0.0567192
1.64802
-0.0709653
1.95027
-0.0854328
2.30678
-0.0986245
2.72977
-0.108153
3.23104
-0.111909
3.19575
-0.111191
2.64832
-0.107374
2.20568
-0.10283
1.84585
-0.0956883
1.53785
-0.0808903
1.2432
-0.0555321
0.910335
-0.0266114
0.543053
-0.00690844
0.238205
0.0535602
-0.00801639
0.134239
-0.0221628
0.416544
-0.0363716
0.754715
-0.0486364
1.09181
-0.0613704
1.384
-0.0766554
1.66331
-0.0929718
1.96659
-0.109353
2.32316
-0.123844
2.74426
-0.13389
3.24109
-0.135484
3.19734
-0.131964
2.6448
-0.126759
2.20047
-0.119433
1.83852
-0.108792
1.52721
-0.0904786
1.22489
-0.0611723
0.881029
-0.0290783
0.510959
-0.00748827
0.216615
0.046072
-0.0104498
0.144689
-0.0293883
0.435483
-0.0496612
0.774988
-0.0667311
1.10888
-0.0826423
1.39991
-0.100606
1.68127
-0.119292
1.98527
-0.137005
2.34087
-0.151393
2.75865
-0.159426
3.24912
-0.159335
3.19725
-0.153818
2.63928
-0.145638
2.19229
-0.136631
1.82952
-0.124116
1.5147
-0.10154
1.20231
-0.0673892
0.846879
-0.0316554
0.475225
-0.00802529
0.192985
0.0380467
-0.0150998
0.159788
-0.0414465
0.461829
-0.0684923
0.802034
-0.0906463
1.13104
-0.110549
1.41981
-0.132539
1.70326
-0.15412
2.00686
-0.17371
2.36046
-0.188335
2.77328
-0.194791
3.25558
-0.190922
3.19338
-0.18199
2.63035
-0.171735
2.18204
-0.159386
1.81717
-0.142073
1.49738
-0.114545
1.17478
-0.0747368
0.807071
-0.0344835
0.434972
-0.00853223
0.167034
0.0295145
-0.019351
0.179139
-0.0549089
0.497387
-0.0920345
0.83916
-0.121808
1.16081
-0.147096
1.4451
-0.172785
1.72895
-0.196371
2.03044
-0.215632
2.37972
-0.228056
2.7857
-0.231147
3.25867
-0.224454
3.18669
-0.212352
2.61825
-0.197812
2.1675
-0.182502
1.80186
-0.162078
1.47696
-0.12813
1.14083
-0.0815818
0.760522
-0.0368198
0.39021
-0.00871493
0.138929
0.0207995
-0.0325014
0.211641
-0.0816445
0.54653
-0.129112
0.886627
-0.165303
1.197
-0.195928
1.47572
-0.225652
1.75868
-0.250288
2.05508
-0.269455
2.39889
-0.280474
2.79672
-0.278759
3.25695
-0.264942
3.17287
-0.247844
2.60115
-0.231406
2.15106
-0.212207
1.78266
-0.184607
1.44936
-0.143539
1.09977
-0.0896081
0.706592
-0.0391699
0.339772
-0.00868763
0.108447
0.0121119
-0.0469031
0.258544
-0.120316
0.619943
-0.183332
0.949643
-0.228064
1.24173
-0.264677
1.51234
-0.295113
1.78911
-0.317561
2.07753
-0.33201
2.41334
-0.335473
2.80018
-0.326561
3.24804
-0.309098
3.15541
-0.288793
2.58085
-0.265866
2.12813
-0.241551
1.75834
-0.209188
1.417
-0.158515
1.04909
-0.0945838
0.642661
-0.0394262
0.284614
-0.00855919
0.0775796
0.00355271
-0.0338854
0.292429
-0.0972204
0.683278
-0.155687
1.00811
-0.20282
1.28887
-0.245323
1.55484
-0.283239
1.82703
-0.318479
2.11277
-0.350077
2.44494
-0.374654
2.82476
-0.387331
3.26072
-0.380214
3.14829
-0.361548
2.56218
-0.341381
2.10797
-0.311742
1.7287
-0.261818
1.36707
-0.188938
0.976212
-0.105295
0.559017
-0.0410718
0.220391
-0.00926189
0.0457697
-0.00570917
-0.0128376
0.305267
-0.0478597
0.7183
-0.0893329
1.04958
-0.128516
1.32805
-0.167383
1.59371
-0.20169
1.86133
-0.233378
2.14445
-0.260242
2.4718
-0.277704
2.84222
-0.278077
3.26109
-0.264207
3.13442
-0.245693
2.54367
-0.217872
2.08014
-0.18441
1.69524
-0.144082
1.32674
-0.0927643
0.924894
-0.0428076
0.509061
-0.0147811
0.192365
-0.00352614
0.0345147
-0.00923532
7.38584e-05
0.305193
-0.0249196
0.743294
-0.0546048
1.07927
-0.0846087
1.35805
-0.115865
1.62496
-0.146203
1.89167
-0.17407
2.17232
-0.196725
2.49445
-0.210312
2.85581
-0.211577
3.26236
-0.198482
3.12133
-0.172537
2.51772
-0.143209
2.05081
-0.110479
1.66251
-0.0713495
1.28761
-0.0322432
0.885788
-0.00648428
0.483302
0.000293056
0.185587
-0.000111259
0.034919
-0.00934657
0.000697379
0.304496
-0.0126707
0.756662
-0.0341409
1.10074
-0.0588037
1.38272
-0.0846838
1.65084
-0.110197
1.91719
-0.133513
2.19564
-0.152091
2.51303
-0.162275
2.86599
-0.159474
3.25955
-0.139888
3.10174
-0.113323
2.49116
-0.0846457
2.02214
-0.0516237
1.62949
-0.0217678
1.25776
0.000669958
0.86335
0.0106132
0.473359
0.00750687
0.188694
0.00200355
0.0404223
-0.00734303
0.00399405
0.300502
-0.00544479
0.7661
-0.0234302
1.11872
-0.0440249
1.40331
-0.0655628
1.67238
-0.086983
1.93861
-0.107099
2.21575
-0.123378
2.52931
-0.132141
2.87475
-0.128381
3.25579
-0.109398
3.08276
-0.0833623
2.46512
-0.0526436
1.99142
-0.0252426
1.60209
0.00229373
1.23022
0.0212049
0.844439
0.0227113
0.471852
0.0130897
0.198315
0.00366031
0.0498517
-0.00368272
0.00516569
0.295336
-0.000916544
0.772183
-0.0168394
1.13465
-0.035118
1.42159
-0.0542667
1.69153
-0.0732445
1.95758
-0.0910025
2.23351
-0.105253
2.54356
-0.11219
2.88169
-0.106638
3.25024
-0.0883342
3.06445
-0.0635766
2.44037
-0.0368869
1.96473
-0.00745962
1.57266
0.0137989
1.20896
0.025475
0.832763
0.0249363
0.472391
0.0142343
0.209017
0.00411936
0.0599666
0.000436648
0.00405866
0.291277
-0.000295534
0.776537
-0.0136624
1.14801
-0.0303468
1.43827
-0.0475773
1.70876
-0.0647415
1.97475
-0.0809029
2.24967
-0.0938282
2.55649
-0.100422
2.88828
-0.0959093
3.24573
-0.0788324
3.04738
-0.055021
2.41655
-0.0283323
1.93804
-0.00610245
1.55043
0.0145149
1.18835
0.0261181
0.82116
0.0234722
0.475037
0.0135218
0.218968
0.00398243
0.069506
0.00441908
0.00251446
0.288763
-0.00118153
0.780233
-0.013165
1.16
-0.0280649
1.45317
-0.0442128
1.72491
-0.060219
1.99075
-0.0753628
2.26482
-0.0880163
2.56914
-0.0952718
2.89554
-0.0914285
3.24189
-0.0752162
3.03116
-0.0533325
2.39467
-0.0309587
1.91567
-0.00658108
1.52606
0.0108883
1.17088
0.0198532
0.812195
0.0192988
0.475591
0.0110193
0.227247
0.00332138
0.0772039
0.00774045
0.000358191
0.288405
-0.00326763
0.783859
-0.0138939
1.17062
-0.0273355
1.46662
-0.0423901
1.73996
-0.0576489
2.00601
-0.0724552
2.27962
-0.0851494
2.58184
-0.0924917
2.90288
-0.0898827
3.23928
-0.0754597
3.01674
-0.0546952
2.37391
-0.0328674
1.89384
-0.0149339
1.50812
0.00276001
1.15318
0.0139079
0.801047
0.013264
0.476235
0.00787674
0.232635
0.00244788
0.0826327
0.0101883
-0.000571991
0.288977
-0.00557543
0.788862
-0.015311
1.18036
-0.0277538
1.47906
-0.0421178
1.75433
-0.0568627
2.02076
-0.0714847
2.29424
-0.0845622
2.59491
-0.0932429
2.91156
-0.0932703
3.23931
-0.0801325
3.0036
-0.0613443
2.35512
-0.0430365
1.87553
-0.0216332
1.48672
-0.00608361
1.13763
0.00330588
0.791658
0.00640333
0.473137
0.00399619
0.235042
0.00153687
0.0850921
0.0117252
-0.00204499
0.291021
-0.00725001
0.794067
-0.0167104
1.18982
-0.0285311
1.49088
-0.0421531
1.76795
-0.0565379
2.03514
-0.0712366
2.30894
-0.0848149
2.60849
-0.0944633
2.92121
-0.0958757
3.24072
-0.0851067
2.99283
-0.0683782
2.33839
-0.048586
1.85574
-0.0326849
1.47082
-0.0161355
1.12108
-0.00384968
0.779372
-0.000329482
0.469617
0.000449995
0.234262
0.000363548
0.0851785
0.0120888
-0.00348664
0.294508
-0.00912874
0.799709
-0.0181876
1.19888
-0.0295793
1.50227
-0.0428123
1.78118
-0.0568543
2.04918
-0.0715548
2.32364
-0.0858419
2.62278
-0.0971939
2.93256
-0.101192
3.24472
-0.092885
2.98453
-0.0777104
2.32322
-0.0610217
1.83905
-0.0404647
1.45026
-0.0241963
1.10482
-0.0126622
0.767838
-0.00517084
0.462126
-0.00211694
0.231208
-0.000304517
0.0833661
0.0117842
-0.00412833
0.298636
-0.0101856
0.805767
-0.0193153
1.20801
-0.0303508
1.51331
-0.0430637
1.7939
-0.0568899
2.06301
-0.0718304
2.33858
-0.0868101
2.63776
-0.0994404
2.94519
-0.105712
3.25099
-0.101432
2.98025
-0.0880293
2.30981
-0.0671078
1.81813
-0.0494513
1.4326
-0.0311806
1.08655
-0.0166848
0.753342
-0.00936772
0.454809
-0.00365839
0.225499
-0.000759075
0.0804668
0.0110252
-0.00439659
0.303033
-0.011209
0.812579
-0.0202221
1.21702
-0.0309761
1.52406
-0.0434817
1.8064
-0.0571247
2.07665
-0.0721383
2.3536
-0.0877167
2.65334
-0.10192
2.9594
-0.111074
3.26014
-0.108667
2.97784
-0.0960061
2.29715
-0.0790753
1.8012
-0.0554604
1.40899
-0.0359418
1.06703
-0.021599
0.738999
-0.0107524
0.443962
-0.00445822
0.219205
-0.000946367
0.0769549
0.0100788
-0.00442732
0.30746
-0.0115427
0.819694
-0.0206612
1.22614
-0.0311945
1.53459
-0.043317
1.81852
-0.0567848
2.09012
-0.0719596
2.36877
-0.0881135
2.66949
-0.103804
2.97509
-0.115681
3.27202
-0.117407
2.97957
-0.106603
2.28635
-0.0840505
1.77864
-0.0619435
1.38688
-0.039049
1.04413
-0.0212307
0.721181
-0.0110916
0.433823
-0.00393488
0.212048
-0.000847931
0.073868
0.00923087
-0.00455587
0.312016
-0.0120028
0.827141
-0.0208808
1.23502
-0.0311744
1.54489
-0.0431425
1.83049
-0.0564516
2.10343
-0.0716388
2.38396
-0.0883252
2.68618
-0.105362
2.99212
-0.119601
3.28626
-0.123403
2.98337
-0.113628
2.27657
-0.0961116
1.76113
-0.0670945
1.35787
-0.0400745
1.01711
-0.0204634
0.70157
-0.00664386
0.420004
-0.000925369
0.20633
0.000558117
0.0723845
0.00978899
-0.00455583
0.316572
-0.011933
0.834519
-0.0207434
1.24383
-0.0308179
1.55496
-0.0424169
1.84209
-0.0555045
2.11652
-0.0707452
2.3992
-0.0878516
2.70328
-0.106023
3.0103
-0.122847
3.30308
-0.131161
2.99168
-0.124157
2.26957
-0.101269
1.73824
-0.07322
1.32982
-0.0399512
0.983843
-0.0131155
0.674734
0.00128097
0.405607
0.00418275
0.203428
-0.00113435
0.0777016
0.00865464
-0.00460333
0.321175
-0.0120287
0.841944
-0.02049
1.25229
-0.0302498
1.56472
-0.0416303
1.85347
-0.0545309
2.12942
-0.0697037
2.41437
-0.0871436
2.72072
-0.106295
3.02945
-0.125011
3.3218
-0.135352
3.00202
-0.130796
2.26501
-0.114379
1.72182
-0.0798907
1.29533
-0.0397022
0.943655
-0.00185642
0.636888
0.0282293
0.375521
0.0390169
0.19264
0.0261027
0.0906158
0.0347573
-0.00446816
0.325644
-0.0116569
0.849133
-0.0199697
1.2606
-0.0294526
1.5742
-0.040418
1.86444
-0.0530292
2.14203
-0.0681149
2.42946
-0.0857322
2.73834
-0.105609
3.04932
-0.126331
3.34252
-0.140394
3.01609
-0.140869
2.26549
-0.120741
1.7017
-0.0884215
1.26301
-0.0404891
0.895722
0.00806136
0.588338
0.0496781
0.333905
0.0484281
0.19389
0.0213312
0.117713
0.0560885
-0.00434691
0.32999
-0.0114735
0.856259
-0.0193916
1.26852
-0.0284798
1.58329
-0.0391917
1.87515
-0.0515702
2.15441
-0.0664898
2.44438
-0.0842184
2.75607
-0.104755
3.06986
-0.127005
3.36477
-0.14267
3.03175
-0.146221
2.26904
-0.13554
1.69102
-0.100676
1.22814
-0.0491789
0.844225
0.0232505
0.515908
0.121967
0.235188
0.195122
0.120736
0.182479
0.130355
0.238568
-0.00418728
0.334178
-0.0111046
0.863177
-0.019062
1.27648
-0.0282027
1.59243
-0.0390413
1.88599
-0.0518396
2.16721
-0.067666
2.4602
-0.0869467
2.77535
-0.11008
3.09299
-0.136679
3.39137
-0.15902
3.05409
-0.169173
2.27919
-0.157575
1.67942
-0.127108
1.19768
-0.0677178
0.784835
-0.0106585
0.458849
-0.0650186
0.289548
-0.356846
0.412563
-0.942273
0.715782
0.9005
-1.60421
-0.00403784
0.338216
-0.0108923
0.870031
-0.0185492
1.28413
-0.0274837
1.60137
-0.0382898
1.89679
-0.0512595
2.18018
-0.0675262
2.47647
-0.0877929
2.79562
-0.112888
3.11809
-0.143106
3.42159
-0.169921
3.08091
-0.184373
2.29364
-0.190897
1.68594
-0.170321
1.1771
-0.141764
0.756278
-0.235366
0.552452
-0.693309
0.74749
-1.44422
1.16348
-2.05139
1.32295
1.21666
-2.36755
-0.00379897
0.342015
-0.0102896
0.876522
-0.0178122
1.29166
-0.0266206
1.61018
-0.0372639
1.90744
-0.0502766
2.19319
-0.0669185
2.49311
-0.0880425
2.81674
-0.114902
3.14495
-0.148581
3.45527
-0.182046
3.11437
-0.206888
2.31848
-0.214328
1.69338
-0.202044
1.16482
-0.287904
0.842137
-0.753341
1.01789
-1.54686
1.54101
-2.11111
1.72773
-2.35006
1.5619
1.33081
-2.46421
-0.00365695
0.345671
-0.00991487
0.88278
-0.0170582
1.2988
-0.0255906
1.61871
-0.0361196
1.91797
-0.0492303
2.2063
-0.0662136
2.5101
-0.0882125
2.83874
-0.116952
3.17369
-0.154531
3.49285
-0.193792
3.15363
-0.22371
2.3484
-0.249996
1.71967
-0.328295
1.24312
-0.683681
1.19752
-1.43859
1.7728
-2.02769
2.13011
-2.26721
1.96724
-2.38028
1.67497
1.39492
-2.44439
-0.00334357
0.349015
-0.00913264
0.888569
-0.0160512
1.30572
-0.0243897
1.62705
-0.0347607
1.92834
-0.0478323
2.21937
-0.0650453
2.52731
-0.0877244
2.86142
-0.118066
3.20403
-0.159062
3.53384
-0.205621
3.20019
-0.249101
2.39188
-0.29016
1.76073
-0.470885
1.42384
-1.09417
1.82081
-1.78874
2.46737
-2.1087
2.45007
-2.2567
2.11525
-2.33869
1.75696
1.46081
-2.40457
-0.003319
0.352334
-0.00912695
0.894377
-0.0159189
1.31251
-0.0242365
1.63536
-0.0348838
1.93898
-0.0483242
2.23281
-0.0661003
2.54509
-0.0898053
2.88512
-0.122073
3.23629
-0.166973
3.57874
-0.219786
3.253
-0.265901
2.438
-0.354441
1.84927
-0.746091
1.81549
-1.4906
2.56531
-1.96319
2.93996
-2.16299
2.64987
-2.26912
2.22138
-2.3462
1.83403
1.52423
-2.40962
-0.00337864
0.355713
-0.00930675
0.900305
-0.0165933
1.3198
-0.0254432
1.64421
-0.0365823
1.95012
-0.0506257
2.24686
-0.0692434
2.5637
-0.0941384
2.91002
-0.128349
3.27051
-0.177006
3.6274
-0.234318
3.31032
-0.296326
2.50001
-0.484661
2.0376
-1.0462
2.37704
-1.67845
3.19756
-1.95348
3.215
-2.10025
2.79664
-2.214
2.33513
-2.30751
1.92754
1.58584
-2.36911
-0.00349064
0.359203
-0.0099217
0.906736
-0.0174824
1.32736
-0.0267176
1.65345
-0.0384234
1.96183
-0.0532148
2.26165
-0.0727864
2.58328
-0.0990813
2.93631
-0.13541
3.30683
-0.187944
3.67993
-0.250838
3.37321
-0.336355
2.58552
-0.617861
2.31911
-1.26389
3.02306
-1.7526
3.68627
-1.95957
3.42197
-2.09929
2.93636
-2.22294
2.45878
-2.33325
2.03785
1.64439
-2.39181
-0.00341739
0.362621
-0.00990444
0.913223
-0.0181374
1.33559
-0.0280699
1.66338
-0.0403361
1.97409
-0.0557673
2.27708
-0.0762215
2.60373
-0.103723
2.96382
-0.141922
3.34503
-0.197511
3.73552
-0.264915
3.44061
-0.389148
2.70976
-0.775402
2.70536
-1.41028
3.65794
-1.76265
4.03864
-1.93541
3.59472
-2.03718
3.03813
-2.12559
2.54719
-2.19267
2.10493
1.63712
-2.1854
-0.00341526
0.366036
-0.0105086
0.920316
-0.0189901
1.34407
-0.0293078
1.6737
-0.0422261
1.98701
-0.0584865
2.29334
-0.07996
2.6252
-0.108914
2.99277
-0.149136
3.38525
-0.206492
3.79288
-0.284816
3.51894
-0.45471
2.87965
-0.906818
3.15747
-1.46257
4.2137
-1.72412
4.30019
-1.87562
3.74622
-1.96874
3.13125
-1.96998
2.54844
-1.90069
2.03564
1.60127
-1.86485
-0.00316982
0.369206
-0.0100896
0.927236
-0.019323
1.35331
-0.0303817
1.68476
-0.0437704
2.0004
-0.0604076
2.30998
-0.0822559
2.64705
-0.111486
3.022
-0.151955
3.42572
-0.2089
3.84982
-0.294486
3.60452
-0.498713
3.08388
-0.988477
3.64723
-1.42951
4.65473
-1.59441
4.46509
-1.66138
3.81319
-1.66574
3.13561
-1.51801
2.4007
-1.0179
1.53554
0.583373
-0.00274638
0.371952
-0.0105214
0.935011
-0.0199236
1.36271
-0.0314228
1.69626
-0.0458382
2.01482
-0.0639339
2.32807
-0.0877665
2.67088
-0.119887
3.05412
-0.164529
3.47037
-0.22782
3.91311
-0.330453
3.70716
-0.584784
3.33821
-1.12422
4.18667
-1.48238
5.01289
-1.5815
4.5642
-1.57922
3.81091
-1.47536
3.03175
-1.23636
2.1617
-0.632258
0.931434
-0.0488844
-0.00237554
0.374328
-0.00930601
0.941941
-0.0195918
1.37299
-0.0322457
1.70891
-0.0476667
2.03024
-0.0669763
2.34738
-0.0925895
2.6965
-0.127208
3.08874
-0.17597
3.51913
-0.245685
3.98283
-0.368436
3.82991
-0.68258
3.65235
-1.24238
4.74647
-1.50295
5.27347
-1.56112
4.62237
-1.53899
3.78878
-1.33704
2.8298
-0.783362
1.60802
-0.108972
0.257044
-0.157856
-0.00172149
0.376049
-0.00933366
0.949553
-0.0194358
1.3831
-0.0322912
1.72177
-0.0486125
2.04656
-0.0693801
2.36815
-0.0970454
2.72416
-0.134773
3.12647
-0.187455
3.57181
-0.264905
4.06028
-0.412954
3.97796
-0.785486
4.02489
-1.32089
5.28187
-1.49694
5.44952
-1.52822
4.65364
-1.44006
3.70062
-1.10243
2.49218
-0.313498
0.819086
0.0249592
-0.0814131
-0.132897
-0.000469073
0.376518
-0.00659763
0.955682
-0.0175765
1.39407
-0.0317617
1.73595
-0.0490411
2.06384
-0.0709022
2.39001
-0.100217
2.75348
-0.140107
3.16636
-0.195572
3.62728
-0.281759
4.14647
-0.456834
4.15303
-0.894993
4.46304
-1.36585
5.75273
-1.48229
5.56596
-1.4849
4.65626
-1.25997
3.47569
-0.687033
1.91924
-0.0625597
0.194614
0.030481
-0.174454
-0.102416
0.000207677
0.376311
-0.00542354
0.961313
-0.0157369
1.40439
-0.0297631
1.74998
-0.0475136
2.08159
-0.070731
2.41323
-0.101911
2.78466
-0.144486
3.20893
-0.203132
3.68592
-0.298448
4.24178
-0.499012
4.3536
-0.987052
4.95108
-1.36152
6.12719
-1.42567
5.63011
-1.37915
4.60974
-1.09039
3.18693
-0.322941
1.15179
0.00512333
-0.133451
0.0152901
-0.18462
-0.0871261
0.00331049
0.373
0.000378775
0.964245
-0.011028
1.4158
-0.0265328
1.76548
-0.0449459
2.1
-0.0690217
2.4373
-0.101344
2.81698
-0.145268
3.25285
-0.206459
3.74711
-0.309822
4.34515
-0.537419
4.58119
-1.05034
5.46401
-1.32536
6.40221
-1.36574
5.67049
-1.2259
4.4699
-0.773023
2.73406
-0.0695681
0.448335
0.0449931
-0.248012
0.0246095
-0.164237
-0.0625166
0.00467366
0.368326
0.00285709
0.966061
-0.00676447
1.42542
-0.0206372
1.77936
-0.0387578
2.11812
-0.0638505
2.4624
-0.0974258
2.85055
-0.14337
3.2988
-0.207198
3.81094
-0.318593
4.45654
-0.575637
4.83824
-1.07046
5.95883
-1.26087
6.59262
-1.27059
5.68021
-1.05135
4.25066
-0.460506
2.14322
-0.0172654
0.00509499
-0.00551306
-0.259764
0.00560667
-0.175357
-0.0569099
0.00867121
0.359655
0.00998804
0.964745
0.00230527
1.4331
-0.0121568
1.79382
-0.0309878
2.13695
-0.0561881
2.4876
-0.0898061
2.88417
-0.135433
3.34443
-0.200599
3.87611
-0.317965
4.57391
-0.596796
5.11707
-1.04914
6.41117
-1.17164
6.71512
-1.15694
5.66551
-0.897146
3.99086
-0.26391
1.50998
-0.0705844
-0.188231
-0.0384888
-0.29186
-0.0136946
-0.200151
-0.0706045
0.0116772
0.347978
0.0166211
0.959801
0.0118748
1.43785
0.00137928
1.80431
-0.0173249
2.15566
-0.0421044
2.51238
-0.0756094
2.91768
-0.121924
3.39074
-0.187896
3.94208
-0.309432
4.69544
-0.59597
5.40361
-0.982703
6.7979
-1.0489
6.78132
-0.97812
5.59473
-0.679744
3.69249
-0.0751729
0.905409
0.0118075
-0.275211
-0.00327065
-0.276782
-0.00267119
-0.20075
-0.0732757
0.0184905
0.329488
0.0300718
0.948219
0.0282538
1.43966
0.0167043
1.81586
-0.00136222
2.17372
-0.0238001
2.53481
-0.0555969
2.94947
-0.0994639
3.43461
-0.163184
4.0058
-0.283412
4.81567
-0.560746
5.68094
-0.87006
7.10722
-0.905009
6.81626
-0.807229
5.49695
-0.451662
3.33692
0.060047
0.3937
0.0710758
-0.28624
0.0523793
-0.258085
0.0197304
-0.168101
-0.0535453
0.0244962
0.304991
0.0430008
0.929715
0.0465195
1.43614
0.0399414
1.82244
0.0272057
2.18646
0.00549055
2.55653
-0.0243565
2.97932
-0.0661227
3.47637
-0.127118
4.06679
-0.242257
4.93081
-0.488694
5.92738
-0.710496
7.32902
-0.741516
6.84728
-0.631072
5.38651
-0.305808
3.01165
-0.00480679
0.0926992
0.0160325
-0.307079
0.0315208
-0.273574
0.0165683
-0.153149
-0.036977
0.035005
0.269986
0.0650044
0.899716
0.0753944
1.42575
0.0713179
1.82652
0.0603237
2.19745
0.0416074
2.57524
0.015381
3.00555
-0.0214532
3.51321
-0.0749826
4.12032
-0.172119
5.02795
-0.37085
6.12611
-0.525362
7.48353
-0.552581
6.8745
-0.458303
5.29223
-0.180135
2.73349
-0.0589534
-0.0284829
-0.0400973
-0.325935
-0.011702
-0.301969
-0.000313465
-0.164537
-0.0372904
0.0444981
0.225488
0.087331
0.856883
0.108059
1.40503
0.113008
1.82157
0.108761
2.2017
0.0947228
2.58928
0.0741032
3.02617
0.0430545
3.54426
-0.00650296
4.16988
-0.0791583
5.1006
-0.213616
6.26056
-0.299605
7.56952
-0.319345
6.89424
-0.256002
5.22889
-0.0432965
2.52078
-0.0707987
-0.00098071
-0.0741721
-0.322562
-0.0331662
-0.342975
0.0109728
-0.208676
-0.0263176
0.0573812
0.168107
0.119695
0.794568
0.155489
1.36923
0.166855
1.8102
0.166712
2.20185
0.157314
2.59868
0.143829
3.03965
0.123645
3.56444
0.0922405
4.20129
0.0495042
5.14334
0.00365533
6.30641
-0.0329542
7.60613
-0.0307609
6.89205
-0.0496663
5.24779
-0.0438349
2.51495
-0.257827
0.213011
-0.255758
-0.32463
-0.150619
-0.448114
-0.00922256
-0.350072
-0.0355402
0.0599249
0.108182
0.149812
0.704681
0.206693
1.31235
0.234186
1.78271
0.245808
2.19022
0.245105
2.59938
0.239892
3.04487
0.229682
3.57465
0.215717
4.21525
0.199984
5.15907
0.26623
6.24017
0.323183
7.54918
0.28269
6.93254
0.0794007
5.45108
-0.258046
2.8524
-0.615581
0.570546
-0.611643
-0.328569
-0.455061
-0.604696
-0.204568
-0.600566
-0.240108
0.0506062
0.057576
0.182012
0.573275
0.275642
1.21872
0.319449
1.7389
0.338979
2.17069
0.346974
2.59139
0.349036
3.0428
0.354725
3.56896
0.36526
4.20472
0.392995
5.13134
0.552444
6.08072
0.729751
7.37187
0.748036
6.91426
0.650843
5.54828
0.175707
3.32753
-0.378876
1.12513
-0.675308
-0.0321365
-0.613193
-0.666811
-0.336194
-0.877565
-0.576302
0.035086
0.02249
0.216327
0.392033
0.341935
1.09311
0.418926
1.66191
0.459469
2.13015
0.482837
2.56802
0.493088
3.03255
0.510952
3.5511
0.544363
4.17131
0.615939
5.05976
0.908331
5.78833
1.35494
6.92527
1.69232
6.57687
1.92884
5.31175
1.59889
3.65748
0.894319
1.8297
0.289197
0.572985
-0.0587361
-0.318878
-0.152261
-0.78404
-0.728563
0.0311306
-0.0086406
0.235302
0.187862
0.437906
0.890511
0.548203
1.55161
0.599455
2.0789
0.633188
2.53429
0.655374
3.01037
0.686173
3.5203
0.747765
4.10971
0.880077
4.92745
1.27573
5.39268
1.99093
6.21006
2.36788
6.19992
2.57609
5.10354
2.42199
3.81159
1.85738
2.39431
1.29996
1.1304
0.712793
0.268291
0.248186
-0.319434
-0.480377
0.0272583
-0.0358989
0.168858
0.0462626
0.486472
0.572897
0.67527
1.36281
0.771335
1.98284
0.82196
2.48366
0.859772
2.97256
0.889018
3.49105
0.964095
4.03464
1.11007
4.78147
1.48953
5.01322
2.27508
5.4245
2.64408
5.83093
2.83504
4.91258
2.73548
3.91115
2.25605
2.87374
1.6112
1.77525
0.988098
0.891397
0.429714
0.23895
-0.0506625
0.00730349
-0.0432024
0.0876066
-0.0340405
0.411682
0.248821
0.687973
1.08652
0.815578
1.85523
0.853138
2.4461
0.864451
2.96124
0.853557
3.50195
0.851979
4.03621
0.895416
4.73803
1.03118
4.87746
1.44415
5.01154
1.62986
5.64521
1.65273
4.88972
1.57449
3.98938
1.35982
3.08842
1.00337
2.13169
0.637061
1.25771
0.260577
0.615434
0.209915
0.00105754
-0.0442599
0.0407285
-0.0737114
0.226921
0.0626284
0.51618
0.797265
0.679508
1.6919
0.73291
2.3927
0.745673
2.94848
0.740492
3.50713
0.724789
4.05192
0.744144
4.71868
0.803761
4.81784
1.06541
4.74989
1.27852
5.4321
1.28408
4.88415
1.22273
4.05074
1.07139
3.23975
0.799986
2.4031
0.499803
1.55789
0.208334
0.906903
0.418249
0.00104867
-0.0453085
0.0232374
-0.0959002
0.103455
-0.0175889
0.358718
0.542001
0.525623
1.525
0.601983
2.31634
0.621648
2.92881
0.621687
3.50709
0.597823
4.07578
0.589518
4.72698
0.615987
4.79137
0.773095
4.59278
0.95577
5.24942
0.952636
4.88729
0.890976
4.1124
0.774986
3.35574
0.587905
2.59018
0.359292
1.7865
0.140838
1.12536
0.559087
-0.00905119
-0.0362574
-0.00146457
-0.103487
0.0423666
-0.0614201
0.249055
0.335313
0.399351
1.3747
0.467874
2.24782
0.486077
2.91061
0.490708
3.50246
0.475845
4.09064
0.461855
4.74097
0.463527
4.7897
0.557711
4.4986
0.690086
5.11705
0.686853
4.89052
0.622944
4.17631
0.528781
3.4499
0.397107
2.72186
0.233512
1.9501
0.0817074
1.27716
0.640794
0.0108318
-0.0470891