#           x             T        mag(U)             p
       -4.995       348.432   2.32084e-12        100000
       -4.985       348.432   2.32084e-12        100000
       -4.975       348.432   2.32084e-12        100000
       -4.965       348.432   2.32084e-12        100000
       -4.955       348.432   2.32084e-12        100000
       -4.945       348.432   2.29254e-12        100000
       -4.935       348.432   2.23594e-12        100000
       -4.925       348.432   2.17934e-12        100000
       -4.915       348.432   2.12274e-12        100000
       -4.905       348.432   2.06614e-12        100000
       -4.895       348.432   2.00955e-12        100000
       -4.885       348.432   1.95295e-12        100000
       -4.875       348.432   1.89635e-12        100000
       -4.865       348.432   1.83975e-12        100000
       -4.855       348.432   1.78315e-12        100000
       -4.845       348.432   1.68483e-12        100000
       -4.835       348.432   1.54479e-12        100000
       -4.825       348.432   1.40476e-12        100000
       -4.815       348.432   1.26472e-12        100000
       -4.805       348.432   1.12468e-12        100000
       -4.795       348.432   9.84642e-13        100000
       -4.785       348.432   8.44604e-13        100000
       -4.775       348.432   7.04566e-13        100000
       -4.765       348.432   5.64528e-13        100000
       -4.755       348.432    4.2449e-13        100000
       -4.745       348.432   3.41999e-13        100000
       -4.735       348.432   3.17055e-13        100000
       -4.725       348.432   2.92111e-13        100000
       -4.715       348.432   2.67166e-13        100000
       -4.705       348.432   2.42222e-13        100000
       -4.695       348.432   2.17278e-13        100000
       -4.685       348.432   1.92334e-13        100000
       -4.675       348.432   1.67389e-13        100000
       -4.665       348.432   1.42445e-13        100000
       -4.655       348.432   1.17501e-13        100000
       -4.645       348.432   1.05321e-13        100000
       -4.635       348.432   1.05904e-13        100000
       -4.625       348.432   1.06487e-13        100000
       -4.615       348.432   1.07071e-13        100000
       -4.605       348.432   1.07654e-13        100000
       -4.595       348.432   1.08238e-13        100000
       -4.585       348.432   1.08821e-13        100000
       -4.575       348.432   1.09404e-13        100000
       -4.565       348.432   1.09988e-13        100000
       -4.555       348.432   1.10571e-13        100000
       -4.545       348.432   1.84966e-13        100000
       -4.535       348.432   3.33173e-13        100000
       -4.525       348.432    4.8138e-13        100000
       -4.515       348.432   6.29586e-13        100000
       -4.505       348.432   7.77793e-13        100000
       -4.495       348.432      9.26e-13        100000
       -4.485       348.432   1.07421e-12        100000
       -4.475       348.432   1.22241e-12        100000
       -4.465       348.432   1.37062e-12        100000
       -4.455       348.432   1.51883e-12        100000
       -4.445       348.432   1.51372e-12        100000
       -4.435       348.432    1.3553e-12        100000
       -4.425       348.432   1.19689e-12        100000
       -4.415       348.432   1.03847e-12        100000
       -4.405       348.432    8.8005e-13        100000
       -4.395       348.432   7.21632e-13        100000
       -4.385       348.432   5.63215e-13        100000
       -4.375       348.432   4.04797e-13        100000
       -4.365       348.432   2.46379e-13        100000
       -4.355       348.432   8.79613e-14        100000
       -4.345       348.432   9.36503e-14        100000
       -4.335       348.432   2.63446e-13        100000
       -4.325       348.432   4.33242e-13        100000
       -4.315       348.432   6.03038e-13        100000
       -4.305       348.432   7.72833e-13        100000
       -4.295       348.432   9.42629e-13        100000
       -4.285       348.432   1.11242e-12        100000
       -4.275       348.432   1.28222e-12        100000
       -4.265       348.432   1.45202e-12        100000
       -4.255       348.432   1.62181e-12        100000
       -4.245       348.432   1.62196e-12        100000
       -4.235       348.432   1.45245e-12        100000
       -4.225       348.432   1.28295e-12        100000
       -4.215       348.432   1.11345e-12        100000
       -4.205       348.432   9.43942e-13        100000
       -4.195       348.432   7.74438e-13        100000
       -4.185       348.432   6.04934e-13        100000
       -4.175       348.432    4.3543e-13        100000
       -4.165       348.432   2.65926e-13        100000
       -4.155       348.432   9.64218e-14        100000
       -4.145       348.432   2.04222e-14        100000
       -4.135       348.432   3.79269e-14        100000
       -4.125       348.432   5.54316e-14        100000
       -4.115       348.432   7.29363e-14        100000
       -4.105       348.432    9.0441e-14        100000
       -4.095       348.432   1.07946e-13        100000
       -4.085       348.432    1.2545e-13        100000
       -4.075       348.432   1.42955e-13        100000
       -4.065       348.432    1.6046e-13        100000
       -4.055       348.432   1.77965e-13        100000
       -4.045       348.432   2.95684e-13        100000
       -4.035       348.432   5.13618e-13        100000
       -4.025       348.432   7.31553e-13        100000
       -4.015       348.432   9.49487e-13        100000
       -4.005       348.432   1.16742e-12        100000
       -3.995       348.432   1.38536e-12        100000
       -3.985       348.432   1.60329e-12        100000
       -3.975       348.432   1.82122e-12        100000
       -3.965       348.432   2.03916e-12        100000
       -3.955       348.432   2.25709e-12        100000
       -3.945       348.432   2.76728e-12        100000
       -3.935       348.432   3.56973e-12        100000
       -3.925       348.432   4.37217e-12        100000
       -3.915       348.432   5.17461e-12        100000
       -3.905       348.432   5.97706e-12        100000
       -3.895       348.432    6.7795e-12        100000
       -3.885       348.432   7.58195e-12        100000
       -3.875       348.432   8.38439e-12        100000
       -3.865       348.432   9.18683e-12        100000
       -3.855       348.432   9.98928e-12        100000
       -3.845       348.432   1.27078e-11        100000
       -3.835       348.432   1.73425e-11        100000
       -3.825       348.432   2.19772e-11        100000
       -3.815       348.432   2.66119e-11        100000
       -3.805       348.432   3.12466e-11        100000
       -3.795       348.432   3.58812e-11        100000
       -3.785       348.432   4.05159e-11        100000
       -3.775       348.432   4.51506e-11        100000
       -3.765       348.432   4.97853e-11        100000
       -3.755       348.432     5.442e-11        100000
       -3.745       348.432   6.87836e-11        100000
       -3.735       348.432   9.28763e-11        100000
       -3.725       348.432   1.16969e-10        100000
       -3.715       348.432   1.41062e-10        100000
       -3.705       348.432   1.65154e-10        100000
       -3.695       348.432   1.89247e-10        100000
       -3.685       348.432    2.1334e-10        100000
       -3.675       348.432   2.37432e-10        100000
       -3.665       348.432   2.61525e-10        100000
       -3.655       348.432   2.85618e-10        100000
       -3.645       348.432   3.58962e-10        100000
       -3.635       348.432   4.81559e-10        100000
       -3.625       348.432   6.04156e-10        100000
       -3.615       348.432   7.26752e-10        100000
       -3.605       348.432   8.49349e-10        100000
       -3.595       348.432   9.71945e-10        100000
       -3.585       348.432   1.09454e-09        100000
       -3.575       348.432   1.21714e-09        100000
       -3.565       348.432   1.33974e-09        100000
       -3.555       348.432   1.46233e-09        100000
       -3.545       348.432   1.82499e-09        100000
       -3.535       348.432   2.42771e-09        100000
       -3.525       348.432   3.03043e-09        100000
       -3.515       348.432   3.63315e-09        100000
       -3.505       348.432   4.23587e-09        100000
       -3.495       348.432   4.83859e-09        100000
       -3.485       348.432   5.44131e-09        100000
       -3.475       348.432   6.04403e-09        100000
       -3.465       348.432   6.64675e-09        100000
       -3.455       348.432   7.24947e-09        100000
       -3.445       348.432   8.98528e-09        100000
       -3.435       348.432   1.18542e-08        100000
       -3.425       348.432   1.47231e-08        100000
       -3.415       348.432    1.7592e-08        100000
       -3.405       348.432   2.04609e-08        100000
       -3.395       348.432   2.33298e-08        100000
       -3.385       348.432   2.61987e-08        100000
       -3.375       348.432   2.90676e-08        100000
       -3.365       348.432   3.19365e-08        100000
       -3.355       348.432   3.48054e-08        100000
       -3.345       348.432   4.28479e-08        100000
       -3.335       348.432   5.60639e-08        100000
       -3.325       348.432   6.92799e-08        100000
       -3.315       348.432   8.24959e-08        100000
       -3.305       348.432   9.57119e-08        100000
       -3.295       348.432   1.08928e-07        100000
       -3.285       348.432   1.22144e-07        100000
       -3.275       348.432    1.3536e-07        100000
       -3.265       348.432   1.48576e-07        100000
       -3.255       348.432   1.61792e-07        100000
       -3.245       348.432   1.97765e-07        100000
       -3.235       348.432   2.56495e-07        100000
       -3.225       348.432   3.15225e-07        100000
       -3.215       348.432   3.73956e-07        100000
       -3.205       348.432   4.32686e-07        100000
       -3.195       348.432   4.91416e-07        100000
       -3.185       348.432   5.50146e-07        100000
       -3.175       348.432   6.08877e-07        100000
       -3.165       348.432   6.67607e-07        100000
       -3.155       348.432   7.26337e-07        100000
       -3.145       348.432   8.81612e-07        100000
       -3.135       348.432   1.13343e-06        100000
       -3.125       348.432   1.38525e-06        100000
       -3.115       348.432   1.63707e-06        100000
       -3.105       348.432    1.8889e-06        100000
       -3.095       348.432   2.14072e-06        100000
       -3.085       348.432   2.39254e-06        100000
       -3.075       348.432   2.64436e-06        100000
       -3.065       348.432   2.89618e-06        100000
       -3.055       348.432     3.148e-06        100000
       -3.045       348.432   3.79305e-06        100000
       -3.035       348.432   4.83133e-06        100000
       -3.025       348.432   5.86961e-06        100000
       -3.015       348.432   6.90789e-06        100000
       -3.005       348.432   7.94617e-06        100000
       -2.995       348.432   8.98444e-06        100000
       -2.985       348.432   1.00227e-05        100000
       -2.975       348.432    1.1061e-05        100000
       -2.965       348.432   1.20993e-05        100000
       -2.955       348.432   1.31376e-05        100000
       -2.945       348.432   1.57144e-05        100000
       -2.935       348.432   1.98298e-05        100000
       -2.925       348.432   2.39452e-05        100000
       -2.915       348.432   2.80606e-05        100000
       -2.905       348.432    3.2176e-05        100000
       -2.895       348.432   3.62913e-05        100000
       -2.885       348.432   4.04067e-05        100000
       -2.875       348.432   4.45221e-05        100000
       -2.865       348.432   4.86375e-05        100000
       -2.855       348.432   5.27529e-05        100000
       -2.845       348.432   6.26222e-05        100000
       -2.835       348.432   7.82455e-05        100000
       -2.825       348.432   9.38687e-05        100000
       -2.815       348.432   0.000109492        100000
       -2.805       348.432   0.000125115        100000
       -2.795       348.432   0.000140738       99999.9
       -2.785       348.432   0.000156362       99999.9
       -2.775       348.432   0.000171985       99999.9
       -2.765       348.432   0.000187608       99999.9
       -2.755       348.432   0.000203231       99999.9
       -2.745       348.432    0.00023942       99999.9
       -2.735       348.432   0.000296173       99999.9
       -2.725       348.432   0.000352926       99999.8
       -2.715       348.432   0.000409679       99999.8
       -2.705       348.432   0.000466432       99999.8
       -2.695       348.432   0.000523186       99999.8
       -2.685       348.432   0.000579939       99999.8
       -2.675       348.432   0.000636692       99999.8
       -2.665       348.432   0.000693445       99999.7
       -2.655       348.432   0.000750198       99999.7
       -2.645       348.432     0.0008768       99999.7
       -2.635       348.432    0.00107325       99999.6
       -2.625       348.432     0.0012697       99999.5
       -2.615       348.432    0.00146615       99999.5
       -2.605       348.432     0.0016626       99999.4
       -2.595       348.431    0.00185905       99999.3
       -2.585       348.431     0.0020555       99999.2
       -2.575       348.431    0.00225195       99999.2
       -2.565       348.431     0.0024484       99999.1
       -2.555       348.431    0.00264485         99999
       -2.545       348.431    0.00306645       99998.9
       -2.535       348.431    0.00371318       99998.7
       -2.525        348.43    0.00435992       99998.4
       -2.515        348.43    0.00500666       99998.2
       -2.505        348.43    0.00565339         99998
       -2.495        348.43    0.00630013       99997.7
       -2.485        348.43    0.00694686       99997.5
       -2.475       348.429     0.0075936       99997.3
       -2.465       348.429    0.00824034         99997
       -2.455       348.429    0.00888707       99996.8
       -2.445       348.429     0.0102178       99996.3
       -2.435       348.428     0.0122325       99995.6
       -2.425       348.427     0.0142473       99994.9
       -2.415       348.427      0.016262       99994.2
       -2.405       348.426     0.0182768       99993.5
       -2.395       348.425     0.0202915       99992.7
       -2.385       348.424     0.0223062         99992
       -2.375       348.424      0.024321       99991.3
       -2.365       348.423     0.0263357       99990.6
       -2.355       348.422     0.0283504       99989.9
       -2.345       348.421     0.0323168       99988.4
       -2.335       348.419     0.0382347       99986.3
       -2.325       348.417     0.0441526       99984.2
       -2.315       348.414     0.0500705         99982
       -2.305       348.412     0.0559884       99979.9
       -2.295        348.41     0.0619064       99977.8
       -2.285       348.408     0.0678243       99975.7
       -2.275       348.405     0.0737422       99973.5
       -2.265       348.403     0.0796601       99971.4
       -2.255       348.401      0.085578       99969.3
       -2.245       348.397     0.0966758       99965.3
       -2.235       348.391      0.112953       99959.4
       -2.225       348.385      0.129231       99953.5
       -2.215        348.38      0.145509       99947.6
       -2.205       348.374      0.161786       99941.7
       -2.195       348.368      0.178064       99935.9
       -2.185       348.362      0.194341         99930
       -2.175       348.356      0.210619       99924.1
       -2.165       348.351      0.226897       99918.2
       -2.155       348.345      0.243174       99912.3
       -2.145       348.334      0.272131       99901.8
       -2.135       348.319      0.313766       99886.7
       -2.125       348.304      0.355401       99871.6
       -2.115       348.289      0.397036       99856.4
       -2.105       348.274      0.438671       99841.3
       -2.095       348.259      0.480307       99826.2
       -2.085       348.244      0.521942       99811.1
       -2.075       348.229      0.563577       99795.9
       -2.065       348.214      0.605212       99780.8
       -2.055       348.199      0.646847       99765.7
       -2.045       348.173       0.71663       99740.2
       -2.035       348.137      0.814561       99704.4
       -2.025       348.101      0.912491       99668.5
       -2.015       348.066       1.01042       99632.7
       -2.005        348.03       1.10835       99596.9
       -1.995       347.994       1.20628       99561.1
       -1.985       347.958       1.30421       99525.3
       -1.975       347.923       1.40214       99489.4
       -1.965       347.887       1.50007       99453.6
       -1.955       347.851         1.598       99417.8
       -1.945       347.794       1.75158       99361.5
       -1.935       347.717       1.96081       99284.6
       -1.925        347.64       2.17005       99207.7
       -1.915       347.563       2.37927       99130.8
       -1.905       347.486        2.5885       99053.9
       -1.895       347.409       2.79773       98977.1
       -1.885       347.332       3.00696       98900.2
       -1.875       347.255        3.2162       98823.3
       -1.865       347.178       3.42542       98746.4
       -1.855       347.101       3.63466       98669.5
       -1.845       346.988        3.9363       98557.4
       -1.835       346.839       4.33037       98410.1
       -1.825        346.69       4.72444       98262.7
       -1.815       346.542        5.1185       98115.4
       -1.805       346.393       5.51257       97968.1
       -1.795       346.244       5.90664       97820.7
       -1.785       346.095       6.30071       97673.4
       -1.775       345.947       6.69477         97526
       -1.765       345.798       7.08884       97378.7
       -1.755       345.649       7.48291       97231.4
       -1.745       345.455        7.9962         97040
       -1.735       345.214       8.62873       96804.6
       -1.725       344.973       9.26126       96569.2
       -1.715       344.733       9.89378       96333.8
       -1.705       344.492       10.5263       96098.4
       -1.695       344.251       11.1588         95863
       -1.685        344.01       11.7914       95627.6
       -1.675        343.77       12.4239       95392.2
       -1.665       343.529       13.0564       95156.8
       -1.655       343.288       13.6889       94921.4
       -1.645       343.001       14.4492       94644.1
       -1.635       342.668       15.3372       94324.8
       -1.625       342.335       16.2252       94005.6
       -1.615       342.002       17.1131       93686.3
       -1.605       341.669       18.0011       93367.1
       -1.595       341.336       18.8891       93047.8
       -1.585       341.003       19.7771       92728.6
       -1.575        340.67       20.6651       92409.3
       -1.565       340.337        21.553       92090.1
       -1.555       340.004        22.441       91770.8
       -1.545       339.626       23.4524       91414.4
       -1.535       339.204       24.5873       91020.9
       -1.525       338.782       25.7221       90627.4
       -1.515        338.36        26.857       90233.9
       -1.505       337.938       27.9918       89840.4
       -1.495       337.516       29.1267       89446.8
       -1.485       337.094       30.2615       89053.3
       -1.475       336.672       31.3964       88659.8
       -1.465        336.25       32.5312       88266.3
       -1.455       335.828       33.6661       87872.8
       -1.445        335.37       34.9049       87453.5
       -1.435       334.877       36.2477       87008.4
       -1.425       334.383       37.5905       86563.3
       -1.415       333.889       38.9334       86118.2
       -1.405       333.396       40.2762       85673.1
       -1.395       332.902        41.619       85228.1
       -1.385       332.409       42.9618         84783
       -1.375       331.915       44.3047       84337.9
       -1.365       331.421       45.6475       83892.8
       -1.355       330.928       46.9903       83447.7
       -1.345        330.41       48.4087       82989.9
       -1.335       329.867       49.9028       82519.2
       -1.325       329.324       51.3968       82048.6
       -1.315       328.781       52.8908       81577.9
       -1.305       328.238       54.3849       81107.3
       -1.295       327.695       55.8789       80636.6
       -1.285       327.152        57.373         80166
       -1.275       326.609        58.867       79695.3
       -1.265       326.066        60.361       79224.7
       -1.255       325.523       61.8551         78754
       -1.245       324.967       63.3983       78281.5
       -1.235       324.395       64.9906       77806.9
       -1.225       323.825        66.583       77332.4
       -1.215       323.254       68.1753       76857.9
       -1.205       322.683       69.7677       76383.5
       -1.195       322.112         71.36         75909
       -1.185       321.541       72.9524       75434.5
       -1.175       320.969       74.5447       74959.9
       -1.165       320.398       76.1371       74485.4
       -1.155       319.827       77.7294       74010.9
       -1.145       319.249       79.3491       73541.4
       -1.135       318.664       80.9961       73076.7
       -1.125       318.078       82.6431       72611.9
       -1.115       317.492       84.2901       72147.2
       -1.105       316.907       85.9371       71682.6
       -1.095       316.321       87.5841       71217.9
       -1.085       315.736       89.2311       70753.2
       -1.075        315.15       90.8781       70288.4
       -1.065       314.564       92.5251       69823.7
       -1.055       313.979       94.1721         69359
       -1.045       313.394       95.8357         68904
       -1.035       312.811        97.516       68458.7
       -1.025       312.228       99.1962       68013.3
       -1.015       311.645       100.876         67568
       -1.005       311.062       102.557       67122.6
       -0.995       310.479       104.237       66677.3
       -0.985       309.896       105.917       66231.9
       -0.975       309.313       107.597       65786.6
       -0.965        308.73       109.278       65341.2
       -0.955       308.147       110.958       64895.9
       -0.945       307.554       112.639       64461.2
       -0.935       306.951        114.32       64037.1
       -0.925       306.348       116.001       63613.1
       -0.915       305.745       117.682         63189
       -0.905       305.142       119.363         62765
       -0.895        304.54       121.045       62340.9
       -0.885       303.937       122.726       61916.9
       -0.875       303.334       124.407       61492.8
       -0.865       302.731       126.088       61068.8
       -0.855       302.128       127.769       60644.7
       -0.845       301.571       129.455       60235.1
       -0.835        301.06       131.146       59839.9
       -0.825       300.549       132.837       59444.7
       -0.815       300.037       134.527       59049.5
       -0.805       299.526       136.218       58654.3
       -0.795       299.015       137.908       58259.1
       -0.785       298.504       139.599       57863.9
       -0.775       297.992        141.29       57468.7
       -0.765       297.481        142.98       57073.5
       -0.755        296.97       144.671       56678.3
       -0.745       296.357       146.345       56293.9
       -0.735       295.643       148.002       55920.3
       -0.725       294.929       149.659       55546.7
       -0.715       294.215       151.316       55173.2
       -0.705       293.501       152.973       54799.6
       -0.695       292.786       154.631         54426
       -0.685       292.072       156.288       54052.4
       -0.675       291.358       157.945       53678.8
       -0.665       290.644       159.602       53305.3
       -0.655        289.93       161.259       52931.7
       -0.645       289.411       162.903       52574.2
       -0.635       289.088       164.534       52232.9
       -0.625       288.765       166.164       51891.6
       -0.615       288.442       167.794       51550.2
       -0.605       288.119       169.425       51208.9
       -0.595       287.795       171.055       50867.5
       -0.585       287.472       172.686       50526.2
       -0.575       287.149       174.316       50184.9
       -0.565       286.826       175.946       49843.5
       -0.555       286.503       177.577       49502.2
       -0.545       286.012       179.189       49174.5
       -0.535       285.353       180.783       48860.5
       -0.525       284.695       182.376       48546.4
       -0.515       284.036        183.97       48232.4
       -0.505       283.378       185.564       47918.4
       -0.495       282.719       187.157       47604.4
       -0.485       282.061       188.751       47290.4
       -0.475       281.402       190.345       46976.3
       -0.465       280.744       191.938       46662.3
       -0.455       280.085       193.532       46348.3
       -0.445       279.452       195.096       46047.5
       -0.435       278.843       196.629       45759.8
       -0.425       278.234       198.163       45472.2
       -0.415       277.626       199.696       45184.5
       -0.405       277.017       201.229       44896.9
       -0.395       276.408       202.763       44609.2
       -0.385       275.799       204.296       44321.6
       -0.375       275.191       205.829       44033.9
       -0.365       274.582       207.363       43746.3
       -0.355       273.973       208.896       43458.6
       -0.345       273.549       210.394       43185.6
       -0.335       273.308       211.857       42927.2
       -0.325       273.068        213.32       42668.8
       -0.315       272.827       214.783       42410.3
       -0.305       272.587       216.246       42151.9
       -0.295       272.346       217.708       41893.5
       -0.285       272.106       219.171       41635.1
       -0.275       271.865       220.634       41376.6
       -0.265       271.625       222.097       41118.2
       -0.255       271.384        223.56       40859.8
       -0.245        271.08       224.975       40615.4
       -0.235       270.711       226.342       40384.9
       -0.225       270.342        227.71       40154.5
       -0.215       269.973       229.077       39924.1
       -0.205       269.604       230.445       39693.6
       -0.195       269.235       231.812       39463.2
       -0.185       268.866        233.18       39232.7
       -0.175       268.497       234.547       39002.3
       -0.165       268.128       235.915       38771.9
       -0.155       267.759       237.282       38541.4
       -0.145       267.262       238.593         38327
       -0.135       266.637       239.848       38128.7
       -0.125       266.011       241.103       37930.3
       -0.115       265.386       242.358         37732
       -0.105       264.761       243.613       37533.6
       -0.095       264.135       244.868       37335.3
       -0.085        263.51       246.123       37136.9
       -0.075       262.885       247.378       36938.6
       -0.065       262.259       248.633       36740.2
       -0.055       261.634       249.888       36541.9
       -0.045       261.118       251.081       36356.2
       -0.035       260.712       252.213       36183.2
       -0.025       260.306       253.344       36010.2
       -0.015         259.9       254.476       35837.2
       -0.005       259.494       255.608       35664.2
        0.005       259.088       256.739       35491.1
        0.015       258.682       257.871       35318.1
        0.025       258.276       259.003       35145.1
        0.035        257.87       260.134       34972.1
        0.045       257.464       261.266       34799.1
        0.055       257.217        262.33       34642.3
        0.065       257.128       263.327       34501.6
        0.075        257.04       264.323         34361
        0.085       256.951        265.32       34220.3
        0.095       256.863       266.317       34079.7
        0.105       256.774       267.313         33939
        0.115       256.686        268.31       33798.4
        0.125       256.597       269.307       33657.7
        0.135       256.509       270.303       33517.1
        0.145        256.42         271.3       33376.4
        0.155       256.345       272.196       33244.4
        0.165       256.282       272.993       33121.1
        0.175       256.219        273.79       32997.8
        0.185       256.156       274.587       32874.5
        0.195       256.093       275.384       32751.2
        0.205       256.031       276.181       32627.8
        0.215       255.968       276.978       32504.5
        0.225       255.905       277.775       32381.2
        0.235       255.842       278.572       32257.9
        0.245       255.779       279.369       32134.6
        0.255       255.644       280.074       32033.6
        0.265       255.437       280.688       31955.1
        0.275       255.229       281.303       31876.6
        0.285       255.022       281.917       31798.1
        0.295       254.814       282.531       31719.6
        0.305       254.607       283.146       31641.1
        0.315       254.399        283.76       31562.6
        0.325       254.192       284.374       31484.1
        0.335       253.984       284.989       31405.6