/*--------------------------------*- C++ -*----------------------------------*\
| =========                 |                                                 |
| \\      /  F ield         | OpenFOAM: The Open Source CFD Toolbox           |
|  \\    /   O peration     | Version:  v2012                                 |
|   \\  /    A nd           | Website:  www.openfoam.com                      |
|    \\/     M anipulation  |                                                 |
\*---------------------------------------------------------------------------*/
FoamFile
{
    version     2.0;
    format      ascii;
    class       volVectorField;
    location    "40";
    object      U;
}
// * * * * * * * * * * * * * * * * * * * * * * * * * * * * * * * * * * * * * //

dimensions      [0 1 -1 0 0 0 0];


internalField   nonuniform List<vector> 
2200
(
(0.878852 -0.0304156 0)
(1.00579 -0.0512866 0)
(1.00331 -0.0353991 0)
(1.0003 -0.0244603 0)
(0.999869 -0.0166856 0)
(1 -0.0107407 0)
(1.00003 -0.0068856 0)
(1.00003 -0.00425704 0)
(1.00004 -0.00229819 0)
(1.00017 -0.000708515 0)
(1.00006 0.000903951 0)
(1.00006 0.00253266 0)
(1.00004 0.00450205 0)
(0.99999 0.00708616 0)
(1.00002 0.0108871 0)
(0.999863 0.0167147 0)
(1.00023 0.0244487 0)
(1.00348 0.0350326 0)
(1.00593 0.0513636 0)
(0.878985 0.0303353 0)
(0.711954 -0.032768 0)
(0.996614 -0.0630327 0)
(1.03324 -0.0562079 0)
(1.02482 -0.0464659 0)
(1.01589 -0.0361823 0)
(1.00965 -0.0264554 0)
(1.00584 -0.0181632 0)
(1.0037 -0.0114204 0)
(1.00251 -0.00604143 0)
(1.00197 -0.0015731 0)
(1.00195 0.00261151 0)
(1.00245 0.00695347 0)
(1.00359 0.0121179 0)
(1.00577 0.0187588 0)
(1.00948 0.0270818 0)
(1.01566 0.0368053 0)
(1.0247 0.0472304 0)
(1.03304 0.0575645 0)
(0.996637 0.063149 0)
(0.711771 0.03298 0)
(0.535517 -0.0238939 0)
(0.969854 -0.0569396 0)
(1.05641 -0.0547148 0)
(1.05224 -0.0487594 0)
(1.03623 -0.0404468 0)
(1.02449 -0.0323324 0)
(1.01598 -0.0240899 0)
(1.01045 -0.0162424 0)
(1.00725 -0.00899642 0)
(1.00578 -0.00244003 0)
(1.00571 0.0039398 0)
(1.00708 0.0104545 0)
(1.01023 0.0176206 0)
(1.01577 0.0253418 0)
(1.02424 0.0332812 0)
(1.03603 0.0412567 0)
(1.05204 0.0493128 0)
(1.05634 0.0536916 0)
(0.969228 0.0575468 0)
(0.534467 0.0239284 0)
(0.39216 -0.0136664 0)
(0.911643 -0.0464462 0)
(1.05739 -0.0470124 0)
(1.0694 -0.0444225 0)
(1.05472 -0.038274 0)
(1.03922 -0.0316173 0)
(1.02754 -0.0248275 0)
(1.01902 -0.0175965 0)
(1.0136 -0.0101024 0)
(1.01091 -0.002524 0)
(1.0108 0.00507634 0)
(1.01331 0.0125086 0)
(1.0186 0.0197398 0)
(1.02681 0.0265871 0)
(1.03841 0.0329745 0)
(1.05402 0.039419 0)
(1.0685 0.0454814 0)
(1.05577 0.0480841 0)
(0.910121 0.0469126 0)
(0.390207 0.0137495 0)
(0.307453 -0.00452465 0)
(0.846496 -0.0324194 0)
(1.0493 -0.0400053 0)
(1.07942 -0.0382395 0)
(1.06813 -0.0335937 0)
(1.05158 -0.0279492 0)
(1.03823 -0.0226524 0)
(1.02804 -0.0166999 0)
(1.02102 -0.0098759 0)
(1.01724 -0.00237124 0)
(1.01702 0.00537735 0)
(1.02047 0.0126706 0)
(1.02715 0.019174 0)
(1.03724 0.024829 0)
(1.05044 0.0299333 0)
(1.06678 0.0353222 0)
(1.07778 0.0397708 0)
(1.04732 0.0414297 0)
(0.843332 0.032878 0)
(0.304259 0.00469676 0)
(0.26398 0.000103579 0)
(0.788689 -0.0200839 0)
(1.03321 -0.0314984 0)
(1.08347 -0.0321178 0)
(1.07729 -0.0288803 0)
(1.06081 -0.0239919 0)
(1.04712 -0.0194919 0)
(1.03626 -0.0144651 0)
(1.02846 -0.00846759 0)
(1.02406 -0.0014901 0)
(1.02377 0.00583603 0)
(1.02764 0.0125284 0)
(1.035 0.0180759 0)
(1.04543 0.0227337 0)
(1.05884 0.0265929 0)
(1.07522 0.031104 0)
(1.08091 0.0338712 0)
(1.02988 0.0330449 0)
(0.783612 0.0206411 0)
(0.259574 8.37713e-05 0)
(0.23997 0.00105688 0)
(0.737851 -0.0123361 0)
(1.01327 -0.025127 0)
(1.08373 -0.026967 0)
(1.08277 -0.024767 0)
(1.06762 -0.0207027 0)
(1.05403 -0.0167491 0)
(1.04323 -0.0122525 0)
(1.03516 -0.00695137 0)
(1.03033 -0.000701657 0)
(1.02987 0.00592718 0)
(1.03386 0.0118335 0)
(1.0414 0.0167098 0)
(1.05174 0.0206365 0)
(1.06525 0.0243024 0)
(1.08 0.027745 0)
(1.08041 0.0294156 0)
(1.00819 0.0269601 0)
(0.730051 0.0130391 0)
(0.234069 -0.000862559 0)
(0.225504 0.000939748 0)
(0.694738 -0.00811783 0)
(0.992537 -0.0209099 0)
(1.08183 -0.0233684 0)
(1.08652 -0.0215895 0)
(1.07305 -0.0181635 0)
(1.05964 -0.0144137 0)
(1.04905 -0.0101146 0)
(1.0411 -0.00515634 0)
(1.03623 0.000501511 0)
(1.03566 0.00635496 0)
(1.03947 0.0115698 0)
(1.04651 0.0158634 0)
(1.05656 0.0195034 0)
(1.0695 0.0224603 0)
(1.08231 0.0251913 0)
(1.07636 0.0261919 0)
(0.984567 0.0230151 0)
(0.683803 0.00896518 0)
(0.217983 -0.000741163 0)
(0.215798 0.000613168 0)
(0.65911 -0.00570892 0)
(0.97176 -0.0177512 0)
(1.07888 -0.0204551 0)
(1.08961 -0.0189475 0)
(1.07771 -0.0158976 0)
(1.06446 -0.0123915 0)
(1.05412 -0.00829938 0)
(1.04635 -0.00363876 0)
(1.04135 0.00157177 0)
(1.04043 0.00680691 0)
(1.04395 0.0116182 0)
(1.0507 0.0154562 0)
(1.06024 0.018657 0)
(1.07306 0.0214027 0)
(1.08411 0.023647 0)
(1.07196 0.0242858 0)
(0.961051 0.020441 0)
(0.644366 0.00683287 0)
(0.206197 -0.000381016 0)
(0.208551 0.000299664 0)
(0.630385 -0.00422781 0)
(0.952498 -0.0150228 0)
(1.07552 -0.0179904 0)
(1.09264 -0.0167623 0)
(1.08214 -0.0139593 0)
(1.06878 -0.0104813 0)
(1.05844 -0.00658577 0)
(1.05078 -0.00209648 0)
(1.04597 0.00282692 0)
(1.04505 0.00774011 0)
(1.048 0.0119672 0)
(1.0541 0.0155177 0)
(1.06332 0.0184111 0)
(1.07595 0.0208656 0)
(1.08505 0.0226485 0)
(1.06523 0.0227698 0)
(0.937035 0.0183517 0)
(0.610651 0.00560841 0)
(0.196355 -1.32274e-05 0)
(0.202704 7.63759e-05 0)
(0.607125 -0.00316857 0)
(0.934884 -0.0126922 0)
(1.07234 -0.0158517 0)
(1.09561 -0.0147411 0)
(1.08662 -0.012065 0)
(1.07311 -0.0087253 0)
(1.06241 -0.00499087 0)
(1.05442 -0.000728906 0)
(1.04917 0.00399244 0)
(1.04757 0.00883939 0)
(1.05024 0.0128646 0)
(1.05653 0.0159566 0)
(1.06596 0.0184113 0)
(1.0785 0.0205672 0)
(1.08597 0.022053 0)
(1.05934 0.0216994 0)
(0.914644 0.0166063 0)
(0.581785 0.00483564 0)
(0.187406 0.000258652 0)
(0.197969 4.61702e-06 0)
(0.588453 -0.00228301 0)
(0.918317 -0.0102888 0)
(1.06896 -0.0135796 0)
(1.09904 -0.0127118 0)
(1.0913 -0.0101183 0)
(1.07742 -0.00666047 0)
(1.06633 -0.00297921 0)
(1.05803 0.0012157 0)
(1.05276 0.00582204 0)
(1.05118 0.0104064 0)
(1.05343 0.0140234 0)
(1.05909 0.0167184 0)
(1.06841 0.0189025 0)
(1.08113 0.0207528 0)
(1.08605 0.02167 0)
(1.05062 0.0206934 0)
(0.891216 0.0150534 0)
(0.556003 0.00434132 0)
(0.178878 0.000432292 0)
(0.194613 1.93171e-05 0)
(0.574529 -0.0014067 0)
(0.905046 -0.00777125 0)
(1.06614 -0.010825 0)
(1.10193 -0.00999939 0)
(1.0959 -0.00765548 0)
(1.0821 -0.00449138 0)
(1.07065 -0.000932252 0)
(1.06195 0.00326204 0)
(1.05601 0.00773648 0)
(1.05347 0.0119521 0)
(1.05527 0.0153382 0)
(1.06137 0.0178277 0)
(1.07078 0.019489 0)
(1.08276 0.0209332 0)
(1.08556 0.0212675 0)
(1.04331 0.0198484 0)
(0.870166 0.0137431 0)
(0.53379 0.00395848 0)
(0.170938 0.00050418 0)
(0.192591 5.56552e-05 0)
(0.564385 -0.000667834 0)
(0.892507 -0.00569589 0)
(1.06306 -0.00843773 0)
(1.10521 -0.00747698 0)
(1.1006 -0.00495652 0)
(1.08675 -0.00174868 0)
(1.07497 0.00182332 0)
(1.06572 0.00582683 0)
(1.05925 0.0101606 0)
(1.05658 0.0140831 0)
(1.05802 0.0170951 0)
(1.06305 0.0190027 0)
(1.07228 0.0203078 0)
(1.08363 0.020897 0)
(1.08397 0.0211194 0)
(1.03197 0.0191717 0)
(0.84698 0.0126323 0)
(0.51268 0.00373174 0)
(0.163157 0.000538266 0)
(0.191945 4.59888e-05 0)
(0.557195 -6.13734e-05 0)
(0.8837 -0.003331 0)
(1.06144 -0.0055898 0)
(1.10826 -0.00433276 0)
(1.10506 -0.00177813 0)
(1.0915 0.00162367 0)
(1.07948 0.0052341 0)
(1.06961 0.00930536 0)
(1.06208 0.0133781 0)
(1.05836 0.0167277 0)
(1.05957 0.0189567 0)
(1.0652 0.0202909 0)
(1.07397 0.0210663 0)
(1.08401 0.0216114 0)
(1.08202 0.0213448 0)
(1.02307 0.0189143 0)
(0.827162 0.0120668 0)
(0.494319 0.00369865 0)
(0.155859 0.000579085 0)
(0.192634 -6.9403e-05 0)
(0.554614 0.0010075 0)
(0.877151 -0.00122543 0)
(1.06047 -0.00283663 0)
(1.11241 -0.00122205 0)
(1.11034 0.00181438 0)
(1.09667 0.00533425 0)
(1.08439 0.00924365 0)
(1.07416 0.013088 0)
(1.06609 0.0167637 0)
(1.06176 0.0195853 0)
(1.06191 0.0214464 0)
(1.06588 0.02226 0)
(1.07428 0.0226 0)
(1.08357 0.0227877 0)
(1.07802 0.0220518 0)
(1.00959 0.0189017 0)
(0.803868 0.011701 0)
(0.475108 0.00374522 0)
(0.14804 0.000636435 0)
(0.194928 0.00033816 0)
(0.555506 0.00162395 0)
(0.873832 0.00153845 0)
(1.06145 0.000754828 0)
(1.11685 0.00267025 0)
(1.11568 0.00561151 0)
(1.10194 0.00951753 0)
(1.08919 0.0133521 0)
(1.07828 0.0175321 0)
(1.06931 0.0214573 0)
(1.06388 0.0242025 0)
(1.063 0.0252108 0)
(1.06699 0.0253133 0)
(1.07484 0.0251245 0)
(1.08253 0.0243213 0)
(1.07455 0.0226924 0)
(0.998885 0.0191411 0)
(0.784693 0.0115266 0)
(0.45853 0.00380698 0)
(0.140634 0.0006657 0)
(0.199221 0.000683557 0)
(0.559111 0.00252917 0)
(0.874976 0.00405262 0)
(1.06316 0.00406593 0)
(1.12168 0.00659093 0)
(1.12156 0.0101395 0)
(1.10722 0.0140177 0)
(1.09354 0.018339 0)
(1.0817 0.0226142 0)
(1.07159 0.0263685 0)
(1.06455 0.0287071 0)
(1.06229 0.029531 0)
(1.06486 0.0290962 0)
(1.07266 0.0279792 0)
(1.07966 0.0267736 0)
(1.0677 0.0244379 0)
(0.982238 0.0198427 0)
(0.760211 0.0115321 0)
(0.439373 0.00397958 0)
(0.132256 0.000706869 0)
(0.206481 0.00085167 0)
(0.567928 0.00392418 0)
(0.879874 0.00688645 0)
(1.06768 0.00878085 0)
(1.12735 0.0118919 0)
(1.12767 0.0153941 0)
(1.11272 0.0200354 0)
(1.09785 0.0245452 0)
(1.08441 0.0291393 0)
(1.07253 0.0332503 0)
(1.06461 0.0355153 0)
(1.06192 0.035369 0)
(1.06462 0.0337417 0)
(1.07148 0.0316967 0)
(1.07631 0.0291849 0)
(1.06076 0.0260397 0)
(0.968362 0.0206169 0)
(0.740496 0.0119263 0)
(0.422867 0.00430423 0)
(0.124304 0.000745999 0)
(0.21544 0.00103773 0)
(0.581047 0.00524306 0)
(0.88968 0.0103719 0)
(1.07448 0.0137464 0)
(1.13397 0.0174411 0)
(1.13498 0.0221103 0)
(1.11927 0.0270934 0)
(1.10352 0.0323664 0)
(1.08888 0.0372603 0)
(1.07522 0.0409225 0)
(1.0645 0.0419221 0)
(1.05917 0.0408493 0)
(1.05962 0.0387374 0)
(1.06614 0.0358937 0)
(1.07051 0.0330936 0)
(1.05041 0.0287956 0)
(0.948313 0.0220431 0)
(0.714097 0.0127479 0)
(0.401896 0.00476939 0)
(0.114656 0.000782286 0)
(0.228833 0.00144444 0)
(0.602242 0.00717571 0)
(0.90662 0.014828 0)
(1.0852 0.0201394 0)
(1.14258 0.0249306 0)
(1.14344 0.0297151 0)
(1.12708 0.0356335 0)
(1.11013 0.0415358 0)
(1.09373 0.0469664 0)
(1.07787 0.0509641 0)
(1.06544 0.05191 0)
(1.05976 0.0504186 0)
(1.0595 0.0467569 0)
(1.06385 0.0422643 0)
(1.06427 0.0375567 0)
(1.03925 0.0319245 0)
(0.930415 0.0242888 0)
(0.692296 0.0143123 0)
(0.382749 0.00548587 0)
(0.105141 0.000826873 0)
(0.245139 0.0020146 0)
(0.627811 0.00879188 0)
(0.928555 0.0188766 0)
(1.09934 0.0262964 0)
(1.15295 0.0322912 0)
(1.1535 0.0391909 0)
(1.13554 0.0461245 0)
(1.11689 0.0529819 0)
(1.09836 0.0589641 0)
(1.0799 0.062672 0)
(1.06424 0.062235 0)
(1.05434 0.0586167 0)
(1.05117 0.0538789 0)
(1.05456 0.0488033 0)
(1.05547 0.0439006 0)
(1.02509 0.0369806 0)
(0.90581 0.0276383 0)
(0.661137 0.0165357 0)
(0.356154 0.0062819 0)
(0.0929641 0.000874433 0)
(0.267814 0.00285535 0)
(0.6625 0.0125978 0)
(0.957545 0.0253457 0)
(1.11808 0.0354115 0)
(1.16625 0.0433838 0)
(1.165 0.0514066 0)
(1.14496 0.0597465 0)
(1.12356 0.0675258 0)
(1.1017 0.0738542 0)
(1.07967 0.0771576 0)
(1.06152 0.0761973 0)
(1.05166 0.071989 0)
(1.04892 0.0658563 0)
(1.05039 0.0585742 0)
(1.04477 0.0514418 0)
(1.00786 0.042728 0)
(0.881351 0.0321156 0)
(0.632669 0.0194093 0)
(0.330166 0.00730317 0)
(0.0806769 0.000932082 0)
(0.299551 0.00374975 0)
(0.708858 0.0156507 0)
(0.996164 0.0332168 0)
(1.14281 0.0465414 0)
(1.18299 0.0564436 0)
(1.17916 0.0675661 0)
(1.15549 0.0775397 0)
(1.13079 0.0861045 0)
(1.10545 0.092205 0)
(1.07999 0.0942778 0)
(1.05813 0.0909364 0)
(1.04344 0.0837978 0)
(1.03612 0.0754025 0)
(1.03567 0.0672841 0)
(1.03178 0.0598195 0)
(0.988803 0.050035 0)
(0.849422 0.0372274 0)
(0.591554 0.0224866 0)
(0.294044 0.00807621 0)
(0.0650981 0.000926135 0)
(0.336104 0.00723647 0)
(0.767102 0.0247866 0)
(1.04362 0.0460425 0)
(1.17333 0.0632633 0)
(1.20459 0.0762308 0)
(1.19554 0.0895972 0)
(1.1675 0.100552 0)
(1.13849 0.109232 0)
(1.10863 0.11462 0)
(1.07835 0.115071 0)
(1.05268 0.109959 0)
(1.03727 0.101045 0)
(1.03148 0.0915986 0)
(1.03012 0.0813627 0)
(1.01678 0.0708247 0)
(0.964005 0.058278 0)
(0.814829 0.0433941 0)
(0.551676 0.0257413 0)
(0.259571 0.0090059 0)
(0.0504069 0.000813156 0)
(0.41716 0.0108776 0)
(0.853368 0.0357749 0)
(1.10689 0.0662717 0)
(1.21165 0.0882732 0)
(1.22997 0.102942 6.94578e-34)
(1.21383 0.119288 -3.10448e-34)
(1.17936 0.13021 0)
(1.1453 0.137864 0)
(1.11072 0.141241 0)
(1.07655 0.139069 0)
(1.04731 0.130455 0)
(1.02748 0.118483 0)
(1.01597 0.105757 0)
(1.00999 0.0933907 0)
(0.998162 0.0825514 0)
(0.937122 0.0685834 0)
(0.770325 0.0500142 0)
(0.495074 0.0290733 0)
(0.210921 0.00899271 0)
(0.031798 0.000711942 0)
(0.487953 0.0261268 5.2816e-20)
(0.953572 0.0593256 -3.99101e-20)
(1.1744 0.099997 0)
(1.25077 0.125204 3.04444e-20)
(1.25768 0.141419 -2.46789e-20)
(1.2312 0.158697 3.27546e-34)
(1.18998 0.167801 0)
(1.15033 0.173613 1.71665e-20)
(1.11015 0.174851 -5.62195e-20)
(1.06999 0.170029 1.14335e-20)
(1.03548 0.158689 0)
(1.01364 0.144125 -2.87236e-20)
(1.00424 0.130128 -3.43129e-20)
(0.999891 0.117079 5.99748e-20)
(0.972727 0.101841 -4.73595e-20)
(0.891015 0.0819351 0)
(0.705184 0.0583236 -1.71264e-20)
(0.42203 0.0313802 0)
(0.157273 0.00977504 -9.42792e-20)
(0.0140133 0.000842577 1.11175e-19)
(0.522635 0.053861 -6.88435e-21)
(1.015 0.102656 1.23051e-19)
(1.22285 0.150038 -7.9042e-21)
(1.284 0.172775 -7.75433e-20)
(1.28175 0.190285 -5.22881e-20)
(1.24604 0.205471 8.49543e-20)
(1.19851 0.212037 0)
(1.15307 0.215481 0)
(1.10712 0.213973 8.96464e-20)
(1.06196 0.206157 0)
(1.02356 0.192142 1.0422e-19)
(0.996724 0.175574 3.08185e-20)
(0.97918 0.159938 3.59637e-22)
(0.961913 0.142114 -6.55841e-20)
(0.934458 0.125175 0)
(0.846646 0.10355 0)
(0.651184 0.0724871 -2.80533e-19)
(0.375115 0.0398771 7.03025e-19)
(0.137507 0.0122756 -4.17126e-19)
(0.00706289 0.0012502 -4.91772e-19)
(0.52953 0.0764161 -7.58618e-20)
(1.05086 0.159372 2.8315e-20)
(1.2585 0.210607 1.47575e-20)
(1.31033 0.231635 1.35815e-19)
(1.30047 0.247144 1.42696e-20)
(1.2573 0.257881 -2.22149e-19)
(1.20418 0.260689 7.52111e-20)
(1.15308 0.261161 0)
(1.10147 0.256921 -1.89966e-19)
(1.05047 0.247063 1.6737e-19)
(1.00563 0.230137 -2.81307e-19)
(0.974648 0.211584 1.31694e-19)
(0.955671 0.19291 -8.50577e-20)
(0.942244 0.17602 1.91644e-19)
(0.903252 0.155973 0)
(0.808168 0.127295 -7.01393e-20)
(0.619772 0.0904591 0)
(0.365111 0.0488802 3.88097e-19)
(0.138153 0.0185369 -9.21062e-19)
(0.0103389 0.00100436 5.76943e-19)
(0.522453 0.108207 2.2807e-19)
(1.06836 0.215981 -9.85156e-20)
(1.27945 0.275707 -2.03368e-20)
(1.3276 0.296042 0)
(1.31256 0.308978 -9.96396e-20)
(1.26424 0.314358 1.2256e-19)
(1.20673 0.312561 -8.04631e-20)
(1.15091 0.309287 0)
(1.09485 0.301328 1.35066e-19)
(1.03913 0.286622 -1.17721e-19)
(0.990508 0.266771 2.43869e-19)
(0.955307 0.246646 0)
(0.929208 0.226677 -1.80814e-19)
(0.902545 0.205383 1.01979e-19)
(0.86834 0.183947 2.57104e-19)
(0.780559 0.156106 -2.26196e-19)
(0.605012 0.114553 3.61636e-19)
(0.366908 0.0665738 -8.00349e-19)
(0.152425 0.0274618 5.05482e-19)
(0.0193837 0.00339996 -6.32422e-19)
(0.509903 0.13243 -8.97865e-20)
(1.07458 0.270179 6.47774e-20)
(1.28965 0.341526 -6.71541e-20)
(1.3366 0.361077 1.2861e-19)
(1.31812 0.371656 -1.18335e-19)
(1.26633 0.372216 3.92683e-20)
(1.20524 0.366124 3.66016e-21)
(1.14527 0.358961 -1.55142e-19)
(1.08417 0.347113 -1.41841e-19)
(1.02322 0.329834 -2.52882e-19)
(0.97015 0.308062 -5.24276e-19)
(0.929907 0.282804 -1.61012e-19)
(0.902271 0.260654 2.40543e-21)
(0.883207 0.241126 -3.48628e-19)
(0.840091 0.218334 -6.28791e-21)
(0.750518 0.183337 3.28897e-19)
(0.587243 0.137389 -9.94369e-20)
(0.368194 0.0842023 -5.78144e-20)
(0.165556 0.0380133 0)
(0.0280586 0.00659884 1.34339e-18)
(0.492317 0.153014 0)
(1.06791 0.319889 -9.72822e-21)
(1.29168 0.405027 0)
(1.33882 0.425183 -1.27076e-20)
(1.3178 0.434119 1.16303e-19)
(1.2638 0.430125 -9.06321e-20)
(1.20037 0.419944 8.81957e-20)
(1.13754 0.408851 2.54226e-19)
(1.07407 0.39295 -7.87039e-20)
(1.01114 0.371215 1.25667e-19)
(0.953752 0.342401 2.8177e-19)
(0.909892 0.316998 3.5067e-19)
(0.878089 0.293413 -2.10681e-19)
(0.84436 0.269583 3.76985e-19)
(0.808027 0.245036 -2.98442e-19)
(0.73063 0.214226 0)
(0.581717 0.163758 -7.54138e-19)
(0.376138 0.105092 1.01509e-18)
(0.179665 0.0506928 7.57642e-20)
(0.0365082 0.0105894 -1.41705e-18)
(0.477717 0.173258 -5.13403e-21)
(1.05897 0.367814 -4.43718e-21)
(1.2882 0.465456 1.2533e-19)
(1.33605 0.486479 -1.22414e-19)
(1.31312 0.494248 9.38786e-20)
(1.25765 0.486565 -8.88605e-20)
(1.1924 0.472921 1.75937e-19)
(1.12709 0.458089 -7.73704e-20)
(1.05987 0.438552 -3.18508e-19)
(0.990287 0.412957 1.23651e-22)
(0.928472 0.38388 -3.05556e-19)
(0.883199 0.353579 -3.76354e-19)
(0.850693 0.327361 2.31975e-19)
(0.827654 0.303486 -1.35474e-19)
(0.784757 0.278976 3.23505e-19)
(0.705987 0.240033 0)
(0.566579 0.188679 -4.66718e-19)
(0.376991 0.124475 6.89257e-19)
(0.188445 0.0630073 1.30682e-18)
(0.0423171 0.0144361 -1.53745e-18)
(0.463168 0.190692 8.07033e-21)
(1.04597 0.412371 -1.10001e-20)
(1.28098 0.523211 -7.83177e-20)
(1.32934 0.545728 1.27653e-19)
(1.30483 0.552579 1.17522e-20)
(1.24836 0.541312 -1.75759e-19)
(1.18184 0.524478 -1.01055e-19)
(1.11469 0.506392 -9.71376e-20)
(1.04555 0.483376 -1.78557e-19)
(0.976216 0.453957 2.87878e-19)
(0.914374 0.419462 3.09775e-19)
(0.865162 0.386028 5.97373e-19)
(0.826929 0.358656 0)
(0.79113 0.330245 6.00859e-21)
(0.756932 0.303407 -8.85848e-19)
(0.689118 0.27045 2.06236e-19)
(0.560001 0.213834 1.00598e-18)
(0.379302 0.145112 -2.96685e-19)
(0.194698 0.0748303 6.19258e-19)
(0.0462876 0.0179984 -5.16733e-20)
(0.453603 0.209176 5.8686e-21)
(1.03382 0.455102 1.52906e-20)
(1.27112 0.577735 -4.29624e-20)
(1.31994 0.601556 1.58565e-19)
(1.29415 0.607612 -2.07299e-19)
(1.23702 0.593594 1.76032e-19)
(1.16962 0.574224 1.04761e-19)
(1.1012 0.553003 2.91936e-19)
(1.03013 0.526586 3.60669e-19)
(0.956666 0.493981 -3.30011e-19)
(0.887754 0.455933 0)
(0.837188 0.419184 -2.24764e-19)
(0.803425 0.386521 2.58052e-19)
(0.776604 0.361834 3.24096e-19)
(0.735382 0.334086 -1.87363e-19)
(0.664483 0.292484 -4.5714e-19)
(0.541761 0.236716 -1.36626e-19)
(0.372048 0.161429 -1.46415e-21)
(0.193013 0.0843857 0)
(0.0471944 0.0201421 0)
(0.445246 0.224677 -4.21214e-20)
(1.02121 0.495278 0)
(1.25967 0.629501 -3.00295e-20)
(1.30839 0.655125 -6.6571e-22)
(1.28152 0.660416 2.31413e-19)
(1.22397 0.643588 -5.95808e-20)
(1.15596 0.621652 1.06481e-19)
(1.08641 0.597838 -1.98296e-19)
(1.01334 0.568567 2.73698e-19)
(0.937534 0.532312 -1.06649e-19)
(0.869894 0.488948 1.76873e-19)
(0.818555 0.449408 7.123e-19)
(0.777947 0.418084 1.39247e-20)
(0.742252 0.385789 -3.3805e-19)
(0.707784 0.354903 6.24755e-19)
(0.64646 0.320143 4.28088e-21)
(0.530556 0.257185 1.4617e-19)
(0.364699 0.177103 -6.97837e-19)
(0.187294 0.0913767 7.15146e-19)
(0.0457679 0.0215678 -8.46177e-19)
(0.438736 0.243452 2.82009e-23)
(1.00931 0.533514 0)
(1.24726 0.678004 0)
(1.29563 0.705361 -1.42863e-20)
(1.26785 0.709817 -7.17326e-20)
(1.20997 0.6908 8.46073e-20)
(1.14147 0.666986 -2.01751e-19)
(1.07081 0.640752 0)
(0.996394 0.608952 -4.02824e-19)
(0.919341 0.569561 4.76848e-19)
(0.848806 0.524746 5.01568e-19)
(0.791696 0.482112 -2.6125e-19)
(0.753665 0.443463 -3.14691e-19)
(0.726562 0.413452 7.37216e-19)
(0.687313 0.383345 -2.2183e-19)
(0.622264 0.336316 -2.64983e-19)
(0.510446 0.274986 -1.58792e-19)
(0.352968 0.188528 -7.52019e-19)
(0.179964 0.0956615 1.08946e-19)
(0.0428339 0.0223382 9.13123e-19)
(0.435008 0.261859 -2.47266e-20)
(0.998391 0.569843 -2.84788e-20)
(1.23409 0.723728 2.35167e-20)
(1.28182 0.753121 -1.33518e-22)
(1.25332 0.756983 -6.38053e-20)
(1.19522 0.735765 1.44111e-19)
(1.12637 0.709932 0)
(1.05515 0.681624 1.18722e-19)
(0.979529 0.647398 -9.36137e-20)
(0.899436 0.605327 7.9452e-19)
(0.823635 0.555947 -1.14435e-19)
(0.768724 0.507485 1.29666e-19)
(0.729241 0.469942 0)
(0.691767 0.434227 -3.98821e-19)
(0.660311 0.398403 4.82117e-19)
(0.603409 0.360152 0)
(0.496062 0.288891 -3.42724e-19)
(0.338547 0.198125 1.00724e-18)
(0.169878 0.0978576 1.18672e-19)
(0.0387475 0.0221841 -1.12363e-18)
(0.432914 0.278688 -6.77538e-20)
(0.988431 0.604373 8.74412e-20)
(1.22087 0.766697 0)
(1.26774 0.797739 -1.25959e-20)
(1.23855 0.800883 0)
(1.18031 0.777963 -1.79356e-19)
(1.11132 0.750684 0)
(1.0394 0.720555 0)
(0.96236 0.684576 -1.21862e-19)
(0.880717 0.640497 -7.54666e-19)
(0.80591 0.588531 -9.25811e-19)
(0.747884 0.538826 1.50859e-19)
(0.702674 0.49386 5.42853e-19)
(0.676817 0.457621 4.38382e-19)
(0.639344 0.423669 -1.54683e-18)
(0.578623 0.370012 -6.21698e-19)
(0.472667 0.30139 3.63756e-19)
(0.321876 0.202744 0)
(0.158997 0.0982233 1.02086e-18)
(0.0343918 0.0211238 -1.21039e-18)
(0.431536 0.294328 8.50072e-20)
(0.978723 0.636768 -1.05019e-19)
(1.20748 0.806776 0)
(1.25335 0.839794 -1.08117e-20)
(1.2236 0.8426 1.13581e-20)
(1.1653 0.81803 0)
(1.09613 0.789155 6.15212e-20)
(1.02354 0.757355 8.08978e-20)
(0.944966 0.719385 -2.3094e-19)
(0.860698 0.672661 1.00669e-19)
(0.779808 0.617443 0)
(0.717217 0.562482 6.25122e-19)
(0.678666 0.5174 4.68616e-21)
(0.640849 0.475766 2.36428e-19)
(0.610424 0.432582 2.80685e-19)
(0.557585 0.388903 0)
(0.455955 0.3084 -5.96274e-19)
(0.304719 0.206289 1.17067e-18)
(0.147446 0.0969187 -1.23866e-18)
(0.030095 0.0196804 2.6068e-18)
(0.430474 0.309332 0)
(0.969959 0.668067 0)
(1.19466 0.844624 -4.83417e-20)
(1.23926 0.879108 0)
(1.20891 0.881328 0)
(1.15051 0.855453 -1.56532e-19)
(1.08122 0.82551 6.31441e-20)
(1.00804 0.792386 1.75106e-20)
(0.928461 0.753319 -5.33417e-20)
(0.842743 0.7059 0)
(0.762242 0.649209 -1.4018e-19)
(0.700001 0.59216 -5.09649e-19)
(0.650166 0.540082 -6.12289e-19)
(0.623701 0.494495 -2.45704e-19)
(0.588782 0.453899 3.04405e-19)
(0.532133 0.391291 -7.17985e-19)
(0.430832 0.314718 1.28315e-18)
(0.286082 0.204886 3.37437e-21)
(0.13595 0.0942191 -1.18932e-18)
(0.0263207 0.0180065 -1.75897e-19)
(0.429482 0.32402 0)
(0.961364 0.697439 -8.80147e-20)
(1.18198 0.879737 6.21294e-20)
(1.22527 0.915979 0)
(1.1944 0.918036 0)
(1.13596 0.89097 3.1772e-19)
(1.06655 0.859773 0)
(0.992846 0.825364 0)
(0.912092 0.78484 -5.06141e-19)
(0.824131 0.735152 1.37364e-19)
(0.737521 0.674894 -1.24573e-18)
(0.667505 0.615238 0)
(0.625445 0.561234 -6.62859e-19)
(0.585793 0.510735 1.08234e-20)
(0.557011 0.455583 -9.77e-19)
(0.508798 0.404034 3.8652e-19)
(0.414198 0.312966 2.13058e-21)
(0.271014 0.20264 -1.35254e-18)
(0.126553 0.0905715 6.41618e-19)
(0.022801 0.0162741 1.88226e-19)
(0.428631 0.338339 0)
(0.953833 0.726023 -1.30173e-19)
(1.17002 0.913172 6.56471e-20)
(1.21179 0.950535 6.3456e-20)
(1.18036 0.952059 -2.37204e-20)
(1.12186 0.924013 3.33935e-20)
(1.05249 0.892103 -4.1228e-20)
(0.978512 0.856736 4.98225e-19)
(0.896821 0.815463 5.41429e-19)
(0.806602 0.765733 1.05107e-18)
(0.719286 0.706263 1.03521e-18)
(0.651023 0.643919 1.81114e-19)
(0.595075 0.583065 9.53589e-19)
(0.56589 0.525983 5.8746e-19)
(0.532482 0.473716 7.01408e-19)
(0.481768 0.396134 -4.23566e-19)
(0.388628 0.309676 -4.94668e-19)
(0.255515 0.191303 5.7926e-19)
(0.119711 0.0877429 -3.43741e-19)
(0.0240543 0.0204572 6.09274e-19)
(0.427802 0.35223 1.88069e-19)
(0.946305 0.752508 2.0293e-19)
(1.15818 0.944046 3.94162e-20)
(1.19858 0.982815 1.62346e-20)
(1.16673 0.984225 4.35062e-20)
(1.10828 0.955336 -8.88366e-20)
(1.03895 0.922506 4.03552e-20)
(0.964449 0.886215 -2.06221e-20)
(0.881406 0.843815 -6.29927e-19)
(0.789522 0.792382 -1.13972e-18)
(0.698483 0.730336 7.20533e-20)
(0.620307 0.665531 0)
(0.56983 0.604678 0)
(0.524131 0.542799 -3.06112e-19)
(0.494301 0.46883 -1.14582e-18)
(0.452932 0.400078 9.12346e-19)
(0.375706 0.287896 5.41984e-19)
(0.260335 0.173547 0)
(0.131343 0.0637073 1.096e-18)
(0.017668 -0.00424328 -6.51774e-19)
(0.427106 0.365482 -9.95281e-20)
(0.939653 0.778212 8.85941e-20)
(1.14706 0.973569 -9.77647e-20)
(1.18599 1.01312 -7.0167e-20)
(1.15368 1.01399 -4.56369e-22)
(1.09525 0.984349 -2.77527e-20)
(1.02603 0.951096 0)
(0.951327 0.914159 -6.2637e-19)
(0.86769 0.871395 7.77088e-20)
(0.774303 0.820634 0)
(0.680716 0.760505 0)
(0.603032 0.695078 1.14668e-19)
(0.537599 0.627203 1.53465e-19)
(0.500493 0.556661 -3.30094e-19)
(0.463284 0.486896 8.22687e-19)
(0.415804 0.379144 -9.93744e-19)
(0.340649 0.268145 -1.15909e-18)
(0.257937 0.150236 1.02555e-18)
(0.17974 0.0989921 -3.91152e-19)
(0.113606 0.0818528 2.27855e-19)
(0.426246 0.377979 1.28261e-19)
(0.932811 0.801741 0)
(1.13606 1.00063 0)
(1.17374 1.0413 -1.74417e-20)
(1.14111 1.04207 1.41201e-20)
(1.08282 1.01181 -2.09299e-20)
(1.01369 0.977899 1.74609e-19)
(0.938664 0.940403 6.4515e-19)
(0.85408 0.896983 1.14372e-18)
(0.75907 0.844986 -8.52152e-20)
(0.662018 0.782443 1.75232e-19)
(0.575716 0.715987 -1.02601e-18)
(0.514024 0.650643 -1.01734e-18)
(0.454158 0.578247 -1.76806e-19)
(0.411267 0.47858 0)
(0.371425 0.384723 -9.15456e-21)
(0.311081 0.204667 6.36244e-19)
(0.273808 0.0493364 -1.07484e-18)
(0.234403 -0.0759301 8.17662e-19)
(0.0819002 -0.0963331 6.79812e-19)
(0.425421 0.389971 -2.8463e-19)
(0.926641 0.824625 -1.29645e-19)
(1.12569 1.0267 6.87883e-21)
(1.16202 1.068 4.65743e-20)
(1.129 1.0683 0)
(1.07072 1.03751 -1.1352e-19)
(1.00176 1.00348 -2.4782e-19)
(0.926695 0.965734 6.43424e-22)
(0.841689 0.922405 -5.99883e-19)
(0.74505 0.871499 -8.3575e-20)
(0.645228 0.812215 7.76258e-20)
(0.558955 0.74823 9.0096e-19)
(0.478346 0.67709 9.93141e-19)
(0.426717 0.594598 1.71755e-19)
(0.37411 0.508337 8.77894e-19)
(0.300212 0.357548 0)
(0.184702 0.191459 0)
(0.013432 0.222606 7.42659e-19)
(-0.076333 0.629162 -3.12768e-20)
(0.00523958 1.53 -9.07484e-19)
(0.424346 0.401349 1.57854e-19)
(0.920296 0.845645 3.576e-19)
(1.11538 1.05071 -4.78835e-19)
(1.15053 1.09309 2.27733e-19)
(1.11718 1.09352 1.13265e-22)
(1.05902 1.0625 -7.35893e-20)
(0.990157 1.02825 0)
(0.914815 0.9905 -5.40027e-19)
(0.828849 0.947178 0)
(0.730769 0.895887 1.1845e-18)
(0.628377 0.835065 -9.34715e-20)
(0.531892 0.770419 1.04807e-19)
(0.458252 0.706448 1.13222e-18)
(0.373313 0.632817 -3.71451e-19)
(0.282447 0.510671 -4.47414e-19)
(0.203581 0.415746 0)
(0.0944452 0.52636 0)
(0.0282477 1.3101 0)
(0.0736672 2.45436 -4.22305e-19)
(0.102041 2.90647 -2.59088e-19)
(0.423214 0.412139 0)
(0.914553 0.86606 0)
(1.10571 1.074 1.75675e-19)
(1.1396 1.11702 -1.83419e-19)
(1.10585 1.1172 6.78438e-20)
(1.04766 1.086 7.68576e-20)
(0.978951 1.05205 3.14905e-20)
(0.903591 1.01456 -2.45181e-20)
(0.817325 0.971933 8.39648e-20)
(0.717714 0.922473 -1.35943e-18)
(0.611602 0.865827 1.70125e-19)
(0.516504 0.807519 8.96516e-19)
(0.418886 0.742218 -1.12868e-18)
(0.344969 0.653482 -1.23167e-18)
(0.269604 0.573814 4.15095e-19)
(0.196874 0.701859 0)
(0.128085 1.53873 5.79273e-19)
(0.127876 2.68724 6.42099e-19)
(0.135821 3.08585 -7.18237e-19)
(0.127014 3.22119 7.761e-19)
(0.421813 0.422485 0)
(0.908644 0.884631 3.2336e-19)
(1.0961 1.09524 -4.37732e-20)
(1.12894 1.13936 2.67465e-19)
(1.09486 1.1399 -7.12131e-20)
(1.03682 1.10878 0)
(0.968199 1.07495 0)
(0.8926 1.03787 0)
(0.805485 0.995881 4.80214e-19)
(0.704811 0.947058 6.33972e-20)
(0.59773 0.890384 0)
(0.491663 0.832033 -8.92401e-19)
(0.409138 0.774718 0)
(0.295525 0.70557 8.82233e-19)
(0.209021 0.776462 -5.92312e-19)
(0.160309 1.45787 -4.77259e-19)
(0.162379 2.67565 -1.12572e-18)
(0.183444 3.1266 -5.95242e-19)
(0.174122 3.26844 -8.16616e-19)
(0.159716 3.30888 6.32735e-19)
(0.420458 0.432023 -1.13967e-19)
(0.903295 0.902659 1.53705e-20)
(1.08716 1.11598 -4.92211e-20)
(1.11888 1.16078 -2.04658e-19)
(1.08442 1.16124 0)
(1.02633 1.13019 0)
(0.95783 1.09695 0)
(0.882249 1.06052 3.74814e-20)
(0.79511 1.01972 -6.06353e-19)
(0.693265 0.973265 0)
(0.581977 0.921165 0)
(0.481363 0.870782 0)
(0.366508 0.814755 0)
(0.306489 0.796317 6.43229e-19)
(0.275146 1.17476 1.58127e-18)
(0.255979 2.37143 4.69942e-19)
(0.267879 3.08298 9.52955e-19)
(0.262094 3.28543 -7.32554e-19)
(0.212752 3.35169 2.72263e-19)
(0.179762 3.36428 0)
(0.418876 0.441239 1.17777e-19)
(0.897587 0.919389 -7.23524e-19)
(1.07801 1.13528 -1.92079e-19)
(1.10886 1.18124 -4.12902e-20)
(1.07408 1.18226 1.60147e-20)
(1.01618 1.15152 -2.17874e-20)
(0.947779 1.11863 -7.52521e-21)
(0.872081 1.08285 -4.34186e-19)
(0.784264 1.04312 0)
(0.681824 0.998153 -7.90628e-20)
(0.571805 0.947822 7.19226e-20)
(0.459653 0.897811 0)
(0.376473 0.856745 0)
(0.320752 0.979882 -8.04186e-19)
(0.279609 1.85238 9.97094e-20)
(0.275335 2.94037 -3.53923e-19)
(0.296302 3.29002 7.40215e-19)
(0.269269 3.38922 5.42679e-19)
(0.202876 3.41389 -7.44982e-19)
(0.177778 3.4231 3.70618e-19)
(0.417052 0.450597 2.33239e-19)
(0.891854 0.937155 7.08656e-19)
(1.06875 1.15593 2.29529e-19)
(1.09861 1.20254 0)
(1.06355 1.20347 0)
(1.00565 1.17281 1.80588e-20)
(0.937467 1.14057 1.02421e-19)
(0.861963 1.10557 3.88e-19)
(0.774508 1.06719 2.45109e-20)
(0.671469 1.02492 1.02194e-18)
(0.557273 0.979067 -1.18803e-18)
(0.449088 0.933891 0)
(0.36797 0.934573 0)
(0.338681 1.34324 -5.48934e-19)
(0.340871 2.47812 -6.59684e-19)
(0.38328 3.19894 0)
(0.408028 3.37333 -7.54752e-19)
(0.338193 3.43655 4.46275e-20)
(0.267456 3.48096 3.69979e-19)
(0.244425 3.50637 -1.2603e-19)
(0.414713 0.460389 -4.45019e-19)
(0.88503 0.955043 -3.41099e-19)
(1.05827 1.17657 0)
(1.08738 1.2243 0)
(1.05212 1.22581 0)
(0.994612 1.19535 0)
(0.926742 1.16332 -1.17356e-19)
(0.851427 1.12885 3.50809e-19)
(0.763663 1.09155 0)
(0.660951 1.05111 -9.31082e-19)
(0.550931 1.00834 2.13309e-18)
(0.443488 0.97356 8.66176e-20)
(0.389002 1.05938 1.13682e-19)
(0.390393 1.74517 8.96726e-19)
(0.406807 2.89607 -4.83238e-19)
(0.44422 3.32322 0)
(0.426982 3.44839 2.11897e-19)
(0.340848 3.5363 9.32963e-20)
(0.263251 3.601 1.47639e-19)
(0.187946 3.58055 -3.55443e-21)
(0.41197 0.470524 2.12375e-19)
(0.877827 0.974699 -3.51741e-19)
(1.04733 1.19948 0)
(1.07554 1.24759 -5.95457e-20)
(1.04012 1.24873 1.99835e-19)
(0.982746 1.21808 0)
(0.915365 1.18652 0)
(0.840583 1.15271 -6.12943e-19)
(0.753763 1.11662 -6.07877e-20)
(0.651258 1.07878 9.17861e-19)
(0.534248 1.03933 -1.01429e-18)
(0.444597 1.02102 5.87511e-19)
(0.40581 1.23363 0)
(0.429279 2.17985 -4.75987e-19)
(0.4719 3.1456 3.11269e-19)
(0.533967 3.428 1.96957e-19)
(0.526813 3.52536 0)
(0.46287 3.60894 -3.56894e-20)
(0.391296 3.65109 -4.11696e-19)