/*--------------------------------*- C++ -*----------------------------------*\
| =========                 |                                                 |
| \\      /  F ield         | OpenFOAM: The Open Source CFD Toolbox           |
|  \\    /   O peration     | Version:  v2012                                 |
|   \\  /    A nd           | Website:  www.openfoam.com                      |
|    \\/     M anipulation  |                                                 |
\*---------------------------------------------------------------------------*/
FoamFile
{
    version     2.0;
    format      ascii;
    class       volScalarField;
    location    "24";
    object      p;
}
// * * * * * * * * * * * * * * * * * * * * * * * * * * * * * * * * * * * * * //

dimensions      [0 2 -2 0 0 0 0];


internalField   nonuniform List<scalar> 
2200
(
0.410658
0.389161
0.373256
0.35759
0.342983
0.330472
0.320116
0.312009
0.30628
0.303255
0.303576
0.307182
0.313348
0.321758
0.332333
0.345005
0.35972
0.375471
0.391425
0.412941
0.343075
0.339817
0.336902
0.332794
0.327345
0.320884
0.314264
0.308284
0.30371
0.301228
0.301551
0.304654
0.309678
0.315995
0.322854
0.329479
0.335057
0.339232
0.342173
0.34546
0.303131
0.303359
0.305429
0.306794
0.30721
0.306367
0.304409
0.301743
0.299143
0.297523
0.297905
0.30018
0.303268
0.306296
0.308503
0.309501
0.309179
0.308007
0.306108
0.305882
0.280689
0.28214
0.284773
0.287261
0.2897
0.291725
0.29289
0.293119
0.29274
0.292316
0.292752
0.29391
0.294855
0.295052
0.294207
0.292426
0.290174
0.287791
0.28517
0.283752
0.266466
0.268448
0.271276
0.274109
0.276972
0.279807
0.282228
0.284021
0.285157
0.285772
0.286272
0.286525
0.286065
0.284775
0.282732
0.280176
0.277503
0.274756
0.271977
0.270019
0.259114
0.2607
0.262922
0.265509
0.268228
0.270903
0.273464
0.275858
0.277779
0.279069
0.279669
0.279433
0.27832
0.276516
0.274394
0.272035
0.269542
0.267096
0.26495
0.263375
0.255828
0.256814
0.258123
0.260078
0.262301
0.264501
0.266678
0.268934
0.271081
0.272783
0.273502
0.273082
0.271917
0.270399
0.268736
0.266932
0.264995
0.263236
0.262024
0.26104
0.253685
0.254336
0.255024
0.256399
0.258083
0.259801
0.261498
0.263288
0.265136
0.266842
0.2677
0.267553
0.266892
0.266006
0.264965
0.26374
0.262409
0.261276
0.260704
0.260047
0.250914
0.251353
0.25184
0.253021
0.254481
0.256014
0.257549
0.259073
0.260615
0.262112
0.263204
0.26364
0.263568
0.263139
0.262432
0.261453
0.260405
0.2595
0.259141
0.258699
0.247214
0.247428
0.247905
0.24916
0.250701
0.252382
0.254131
0.255841
0.257469
0.259014
0.260384
0.26122
0.261411
0.261071
0.260293
0.259329
0.258309
0.257395
0.257047
0.256826
0.243452
0.24352
0.243974
0.24514
0.2466
0.248291
0.250198
0.252234
0.254295
0.256276
0.257937
0.258893
0.259038
0.258666
0.257993
0.257216
0.256347
0.255583
0.255294
0.255219
0.239913
0.23991
0.240309
0.241188
0.242384
0.243842
0.245554
0.247553
0.249876
0.252326
0.254405
0.255676
0.256177
0.256255
0.256057
0.255632
0.255155
0.254748
0.254573
0.254564
0.236349
0.236261
0.236593
0.237249
0.238277
0.239558
0.241063
0.242924
0.245235
0.247954
0.250579
0.252548
0.253871
0.254568
0.25484
0.254873
0.2548
0.254682
0.254598
0.254592
0.232505
0.23246
0.232752
0.233358
0.234396
0.235736
0.237374
0.239426
0.24194
0.245003
0.248206
0.250808
0.252633
0.253774
0.254469
0.254855
0.25502
0.255063
0.255055
0.255053
0.228259
0.228257
0.228511
0.229143
0.230256
0.23174
0.23368
0.236179
0.239264
0.24302
0.246965
0.250146
0.25237
0.253897
0.254949
0.255591
0.255915
0.256073
0.256123
0.25612
0.223144
0.223107
0.223412
0.224114
0.225252
0.226823
0.228989
0.231915
0.235689
0.240398
0.245392
0.249479
0.25236
0.254424
0.25588
0.256821
0.257404
0.257754
0.257877
0.25786
0.217038
0.216997
0.21731
0.218019
0.219195
0.220917
0.223364
0.226724
0.231221
0.236989
0.243271
0.248539
0.252397
0.25518
0.257186
0.258561
0.259467
0.259996
0.260185
0.260148
0.20948
0.209436
0.209798
0.210673
0.212128
0.214233
0.217211
0.221309
0.226795
0.233851
0.241626
0.248226
0.253145
0.256702
0.259249
0.261
0.262175
0.262849
0.263106
0.26306
0.200556
0.200493
0.200938
0.202025
0.203866
0.206569
0.210369
0.215551
0.222436
0.231207
0.240759
0.248863
0.254858
0.259214
0.262303
0.264438
0.26586
0.266657
0.266962
0.266903
0.18969
0.189646
0.190248
0.19166
0.194011
0.197439
0.202252
0.208827
0.217523
0.228483
0.240237
0.250142
0.257435
0.262717
0.266446
0.269035
0.270736
0.271687
0.272064
0.271993
0.176438
0.176344
0.177098
0.178909
0.181931
0.186336
0.192514
0.200908
0.211875
0.225518
0.239949
0.251996
0.260848
0.26726
0.271815
0.274986
0.277085
0.278257
0.278697
0.278594
0.159902
0.159862
0.160933
0.163293
0.167227
0.173003
0.181046
0.191816
0.20567
0.222564
0.240137
0.254682
0.265362
0.273098
0.278617
0.28246
0.284978
0.286377
0.28691
0.286786
0.139099
0.139003
0.140477
0.143739
0.149112
0.156924
0.167567
0.181571
0.199076
0.21987
0.241101
0.258492
0.271231
0.280461
0.287052
0.291683
0.294769
0.296486
0.297106
0.296925
0.111658
0.111853
0.114206
0.118964
0.126621
0.137506
0.151946
0.170183
0.192189
0.217605
0.242984
0.263512
0.278493
0.289405
0.297298
0.302884
0.306588
0.308606
0.309319
0.309104
0.0751636
0.0756197
0.0795472
0.0872143
0.0987478
0.114525
0.134101
0.157692
0.185139
0.215855
0.24581
0.269765
0.287234
0.299998
0.30931
0.316017
0.320569
0.323097
0.323946
0.323589
0.0261841
0.0267482
0.0342502
0.0473486
0.0653663
0.087896
0.114238
0.144509
0.178306
0.214918
0.249805
0.277344
0.297402
0.312176
0.323115
0.331132
0.336636
0.339574
0.340409
0.339965
-0.0399072
-0.0367508
-0.0206181
0.00154499
0.0283604
0.0591064
0.093381
0.131172
0.172006
0.215263
0.255756
0.287617
0.311088
0.32864
0.341892
0.351929
0.359184
0.362903
0.363774
0.363505
-0.116415
-0.105527
-0.0780716
-0.0460675
-0.0095544
0.0300776
0.0725154
0.118047
0.166236
0.216571
0.263358
0.300356
0.32793
0.348973
0.36529
0.377936
0.387715
0.393145
0.395114
0.395441
-0.182942
-0.166519
-0.132258
-0.092007
-0.0464122
0.00177551
0.0523018
0.105557
0.161058
0.218321
0.271142
0.312855
0.343908
0.36781
0.386481
0.401011
0.411987
0.418755
0.421197
0.421249
-0.232244
-0.217898
-0.178458
-0.132477
-0.0799093
-0.0246329
0.0332036
0.093685
0.156078
0.219801
0.278078
0.323718
0.357683
0.383643
0.403918
0.419645
0.431217
0.438053
0.440531
0.440733
-0.272919
-0.259509
-0.216872
-0.167141
-0.109403
-0.0484809
0.0155613
0.0823319
0.150857
0.220462
0.283751
0.333001
0.369235
0.396464
0.41722
0.43315
0.445023
0.45212
0.454876
0.455126
-0.308056
-0.294362
-0.249511
-0.197136
-0.13537
-0.0698869
-0.000708625
0.0713845
0.145347
0.220441
0.288299
0.340438
0.378056
0.405969
0.427312
0.443626
0.455573
0.462993
0.465933
0.466178
-0.338725
-0.324954
-0.278199
-0.223606
-0.158549
-0.0893249
-0.0158744
0.0608216
0.139688
0.219663
0.291424
0.345783
0.384839
0.413667
0.435252
0.451665
0.463892
0.471537
0.47461
0.474788
-0.366415
-0.352633
-0.304217
-0.247427
-0.17952
-0.107247
-0.030211
0.0504738
0.133636
0.217811
0.293199
0.350252
0.390842
0.420341
0.442449
0.459134
0.471258
0.479008
0.481753
0.481655
-0.391802
-0.378135
-0.328389
-0.269385
-0.198878
-0.124048
-0.0439857
0.0401328
0.127061
0.215257
0.294472
0.354215
0.39608
0.426638
0.449185
0.465921
0.477983
0.485446
0.488317
0.488317
-0.415755
-0.401778
-0.351065
-0.290069
-0.217209
-0.140118
-0.0574291
0.0296814
0.120012
0.212106
0.295163
0.357687
0.401648
0.433006
0.455851
0.472593
0.484648
0.492012
0.494895
0.495009
-0.438284
-0.424119
-0.3727
-0.309897
-0.235
-0.155785
-0.0707032
0.0190844
0.112571
0.20832
0.295233
0.360994
0.406933
0.439293
0.462642
0.479615
0.491647
0.498786
0.501737
0.50185
-0.459561
-0.445414
-0.393464
-0.329204
-0.252574
-0.171326
-0.0839723
0.0082992
0.104712
0.203995
0.294893
0.363979
0.411833
0.445556
0.469578
0.486766
0.498893
0.506023
0.508769
0.508858
-0.480065
-0.465772
-0.413479
-0.348067
-0.27003
-0.1869
-0.0973868
-0.00279137
0.0963147
0.198885
0.293445
0.365799
0.416584
0.452142
0.476933
0.494337
0.506391
0.513197
0.515929
0.515948
-0.500277
-0.485408
-0.432837
-0.366447
-0.287291
-0.202527
-0.111059
-0.0143039
0.0872778
0.192866
0.2912
0.367298
0.421263
0.458822
0.484767
0.502416
0.514247
0.520885
0.523259
0.52314
-0.5202
-0.504525
-0.451632
-0.384316
-0.304243
-0.218131
-0.124988
-0.0262827
0.0775546
0.185903
0.28761
0.367559
0.425123
0.465711
0.493311
0.511412
0.52264
0.528414
0.530461
0.530255
-0.539671
-0.523244
-0.469929
-0.401681
-0.320806
-0.233608
-0.139101
-0.0387556
0.0670347
0.177645
0.282502
0.366923
0.428678
0.472694
0.502758
0.521558
0.531852
0.536435
0.537564
0.537223
-0.558509
-0.541542
-0.487733
-0.418561
-0.336947
-0.248871
-0.153287
-0.0516085
0.0558318
0.168736
0.277075
0.365494
0.431301
0.479606
0.51304
0.533733
0.543319
0.544153
0.543429
0.543762
-0.576691
-0.559353
-0.505023
-0.434966
-0.352649
-0.263833
-0.167382
-0.0646216
0.0442985
0.159327
0.269934
0.361438
0.432296
0.485659
0.523869
0.548018
0.558436
0.555161
0.549929
0.547539
-0.594182
-0.576544
-0.521732
-0.450887
-0.36791
-0.278439
-0.181273
-0.0776309
0.0325265
0.148948
0.261445
0.356661
0.431712
0.490463
0.534911
0.564788
0.580375
0.57147
0.566029
0.570849
-0.611004
-0.593075
-0.537803
-0.466278
-0.382706
-0.292643
-0.194856
-0.0904768
0.0205509
0.13814
0.252489
0.349916
0.428707
0.493183
0.544483
0.582538
0.607558
0.591
0.546363
0.500843
-0.627086
-0.608929
-0.553254
-0.481199
-0.397154
-0.306601
-0.208325
-0.103462
0.00814255
0.12665
0.242066
0.340802
0.42258
0.492237
0.551144
0.600031
0.640343
0.652793
0.673191
0.723731
-0.642398
-0.624189
-0.568178
-0.495766
-0.411422
-0.320573
-0.222048
-0.11698
-0.00514166
0.113682
0.229579
0.329095
0.412559
0.485587
0.547568
0.597816
0.630678
0.636112
0.609914
0.617565
-0.656898
-0.6388
-0.582523
-0.509915
-0.425432
-0.334487
-0.235917
-0.130893
-0.0192189
0.0995001
0.215337
0.314415
0.396899
0.46901
0.529261
0.574237
0.579383
0.540719
0.485484
0.47688
-0.670625
-0.652784
-0.596301
-0.523645
-0.439166
-0.348325
-0.249934
-0.145233
-0.0340377
0.0839512
0.198969
0.296737
0.376137
0.44184
0.494664
0.513092
0.484463
0.416259
0.345761
0.33407
-0.683607
-0.666115
-0.609523
-0.536976
-0.452637
-0.362085
-0.264058
-0.159889
-0.0495086
0.067275
0.18079
0.275626
0.34889
0.401526
0.430399
0.422067
0.374866
0.275608
0.189393
0.172665
-0.696307
-0.67923
-0.622597
-0.550277
-0.466178
-0.376034
-0.278518
-0.175099
-0.0658419
0.0492702
0.160337
0.251328
0.317458
0.354265
0.348801
0.314088
0.210258
0.0887137
-0.0183516
-0.041346
-0.7096
-0.692871
-0.6362
-0.564162
-0.480356
-0.390637
-0.293699
-0.191148
-0.0832073
0.0297007
0.137402
0.223148
0.281017
0.296273
0.257472
0.171333
0.0132085
-0.140271
-0.268241
-0.293219
-0.723987
-0.707506
-0.650658
-0.578867
-0.495344
-0.406003
-0.309664
-0.208093
-0.101736
0.00853251
0.112139
0.19247
0.239384
0.227662
0.165039
0.0131097
-0.194518
-0.413219
-0.596599
-0.642783
-0.73953
-0.723139
-0.665997
-0.594397
-0.51112
-0.42212
-0.326404
-0.225903
-0.121241
-0.0138481
0.0845023
0.159852
0.192681
0.145856
0.049316
-0.149778
-0.395694
-0.699525
-1.03344
-1.17566
-0.756269
-0.739951
-0.682325
-0.61083
-0.527729
-0.439042
-0.343959
-0.244583
-0.141798
-0.0376898
0.0549065
0.123616
0.140382
0.0601809
-0.0883321
-0.31379
-0.568804
-0.936925
-1.55139
-2.13759
-0.774197
-0.757864
-0.699672
-0.628208
-0.54518
-0.456766
-0.362315
-0.264113
-0.163263
-0.0623767
0.024773
0.0853879
0.0840198
-0.0193423
-0.225431
-0.486361
-0.713865
-0.980049
-1.58676
-3.20091
-0.79341
-0.77702
-0.718121
-0.646638
-0.563608
-0.47546
-0.381659
-0.28466
-0.185775
-0.0882663
-0.00685119
0.0449777
0.0243876
-0.0837687
-0.329163
-0.602933
-0.77566
-0.837922
-0.86326
-1.27496
-0.813803
-0.797388
-0.73783
-0.6664
-0.58336
-0.495546
-0.402539
-0.306943
-0.210353
-0.11693
-0.0412643
0.000593281
-0.037802
-0.134358
-0.386634
-0.628205
-0.762935
-0.786514
-0.742803
-0.790238
-0.835356
-0.818887
-0.758785
-0.687519
-0.60446
-0.517099
-0.42503
-0.331054
-0.237076
-0.148067
-0.0774035
-0.0453022
-0.0955745
-0.187585
-0.424775
-0.623091
-0.725628
-0.736905
-0.779742
-0.794827
-0.857927
-0.841186
-0.780964
-0.709997
-0.626846
-0.540058
-0.449081
-0.356898
-0.265827
-0.181397
-0.115625
-0.0918423
-0.147137
-0.247059
-0.460949
-0.623175
-0.711734
-0.673941
-0.700023
-0.703114
-0.881257
-0.864122
-0.804247
-0.733652
-0.650322
-0.564311
-0.474546
-0.38433
-0.296482
-0.216792
-0.155672
-0.142828
-0.196083
-0.317804
-0.50076
-0.625461
-0.69373
-0.71871
-0.703532
-0.710843
-0.904793
-0.887443
-0.828604
-0.758271
-0.674671
-0.589612
-0.501124
-0.412929
-0.328631
-0.253694
-0.196303
-0.196635
-0.240285
-0.384787
-0.548228
-0.643609
-0.654374
-0.715684
-0.681376
-0.69156
-0.928171
-0.910854
-0.853428
-0.78322
-0.699532
-0.615626
-0.52843
-0.442211
-0.361707
-0.291496
-0.236694
-0.250272
-0.294421
-0.444351
-0.578984
-0.669331
-0.642544
-0.686245
-0.671525
-0.673387
-0.950896
-0.93402
-0.877897
-0.807972
-0.7246
-0.641885
-0.55587
-0.471641
-0.394966
-0.329644
-0.275619
-0.299671
-0.35772
-0.494674
-0.587299
-0.659048
-0.678462
-0.662766
-0.672737
-0.669115
-0.97232
-0.956156
-0.901124
-0.83163
-0.749383
-0.667715
-0.582814
-0.500356
-0.426974
-0.367079
-0.312076
-0.342225
-0.43111
-0.563521
-0.587248
-0.579385
-0.668826
-0.641909
-0.669331
-0.66818
-0.991467
-0.976345
-0.922557
-0.853651
-0.773261
-0.692232
-0.608319
-0.527527
-0.45647
-0.403062
-0.347818
-0.379724
-0.505348
-0.657368
-0.641437
-0.511242
-0.582822
-0.617247
-0.650065
-0.66283
-1.00739
-0.993599
-0.941487
-0.873399
-0.794923
-0.714316
-0.631542
-0.55227
-0.482551
-0.435308
-0.383388
-0.405799
-0.58268
-0.793496
-0.844546
-0.798169
-0.812839
-0.813423
-0.817605
-0.810597
-1.01891
-1.00677
-0.95698
-0.890069
-0.813088
-0.733081
-0.651464
-0.573187
-0.503706
-0.460684
-0.414531
-0.425385
-0.651535
-0.975227
-1.31097
-1.47298
-1.49401
-1.44529
-1.38982
-1.33
-1.02518
-1.01493
-0.968055
-0.90252
-0.826537
-0.747321
-0.666641
-0.588959
-0.518603
-0.474033
-0.440873
-0.432891
-0.681402
-1.08516
-1.65088
-2.01814
-2.06399
-1.98257
-1.86255
-1.78286
-1.02503
-1.01657
-0.973281
-0.909311
-0.834192
-0.75568
-0.675659
-0.59822
-0.525461
-0.47329
-0.447848
-0.428391
-0.629929
-0.936138
-1.34039
-1.57138
-1.5511
-1.46639
-1.31852
-1.23815
-1.01747
-1.01036
-0.97113
-0.909249
-0.835441
-0.757581
-0.677503
-0.59882
-0.521982
-0.458589
-0.423935
-0.368327
-0.423379
-0.377001
-0.327387
-0.270392
-0.162806
-0.0677413
0.00162972
0.0692718
-1.00052
-0.993711
-0.960192
-0.90137
-0.829267
-0.751974
-0.671117
-0.590207
-0.50774
-0.428085
-0.370889
-0.251406
-0.118515
0.190007
0.534852
0.806647
1.01317
1.1493
1.21784
1.24054
-0.969795
-0.963194
-0.9383
-0.88509
-0.815565
-0.739206
-0.657802
-0.573961
-0.486707
-0.386095
-0.300014
-0.163553
0.114725
0.528483
0.968526
1.33001
1.59081
1.74436
1.81065
1.8289
-0.925179
-0.920446
-0.90734
-0.861436
-0.795273
-0.720456
-0.639462
-0.552882
-0.46266
-0.350385
-0.23826
-0.125765
0.171277
0.550375
0.945354
1.28448
1.54381
1.70261
1.77464
1.79488
-0.881062
-0.879967
-0.873613
-0.832477
-0.769956
-0.69724
-0.618438
-0.532069
-0.441774
-0.337259
-0.220813
-0.139883
0.0792835
0.375884
0.690385
0.959267
1.17303
1.31183
1.38055
1.40449
-0.842125
-0.844693
-0.836362
-0.800103
-0.741337
-0.672276
-0.597654
-0.516379
-0.43255
-0.345172
-0.239547
-0.173053
-0.0398824
0.190546
0.440397
0.637035
0.792965
0.902949
0.956919
0.974965
-0.783778
-0.787461
-0.78116
-0.754511
-0.70362
-0.642625
-0.57625
-0.504819
-0.430057
-0.354754
-0.260653
-0.199764
-0.124107
0.0532316
0.25029
0.396143
0.508856
0.590926
0.627077
0.634465
-0.70338
-0.705739
-0.702822
-0.686402
-0.649546
-0.60343
-0.550489
-0.491762
-0.425468
-0.360689
-0.278295
-0.222586
-0.180685
-0.0567522
0.0930773
0.195553
0.272833
0.328876
0.350893
0.357971
-0.616534
-0.61792
-0.616477
-0.606897
-0.584753
-0.55467
-0.516906
-0.472788
-0.416334
-0.361355
-0.292713
-0.240797
-0.213164
-0.132614
-0.0211862
0.0447318
0.0998191
0.136706
0.153132
0.158809
-0.53872
-0.539644
-0.53883
-0.533994
-0.522889
-0.505667
-0.481147
-0.451458
-0.407961
-0.357613
-0.29876
-0.248336
-0.22261
-0.170353
-0.0948563
-0.0540484
-0.0159601
0.0092325
0.0228101
0.0282447
-0.48182
-0.482007
-0.481735
-0.480016
-0.475166
-0.466339
-0.451636
-0.432376
-0.402119
-0.354532
-0.299722
-0.251873
-0.220955
-0.186242
-0.144252
-0.115913
-0.0905093
-0.0725117
-0.0631458
-0.0614014
-0.450557
-0.45038
-0.450194
-0.449726
-0.447851
-0.443155
-0.433846
-0.41862
-0.394546
-0.361253
-0.306976
-0.257987
-0.224857
-0.210164
-0.182402
-0.163488
-0.147945
-0.138503
-0.13449
-0.135119
-0.44338
-0.442959
-0.442675
-0.442566
-0.441966
-0.438498
-0.433077
-0.422529
-0.403485
-0.379244
-0.326455
-0.2801
-0.243494
-0.247174
-0.228133
-0.213455
-0.202227
-0.20048
-0.202727
-0.203408
-0.455353
-0.454849
-0.454554
-0.454669
-0.45458
-0.452904
-0.451194
-0.446302
-0.439563
-0.422588
-0.376598
-0.327698
-0.303973
-0.296353
-0.276606
-0.261036
-0.249034
-0.243592
-0.244809
-0.246365
-0.481485
-0.480939
-0.480803
-0.481339
-0.482446
-0.483878
-0.48793
-0.492984
-0.504095
-0.502754
-0.47655
-0.410148
-0.374495
-0.354034
-0.328042
-0.303363
-0.277598
-0.256986
-0.248276
-0.2559
-0.51346
-0.513551
-0.514325
-0.516031
-0.519549
-0.526298
-0.539794
-0.562286
-0.598857
-0.635311
-0.636407
-0.5403
-0.462261
-0.42133
-0.379536
-0.341212
-0.303633
-0.279548
-0.266479
-0.27487
-0.543387
-0.543993
-0.545728
-0.549357
-0.556637
-0.570909
-0.597953
-0.645445
-0.71968
-0.815584
-0.848802
-0.732225
-0.610068
-0.543063
-0.465853
-0.397534
-0.340284
-0.321325
-0.316641
-0.3205
-0.559869
-0.561204
-0.564471
-0.570298
-0.581589
-0.603857
-0.646263
-0.721505
-0.846831
-1.00016
-1.0838
-0.957805
-0.814668
-0.691115
-0.569295
-0.479862
-0.431954
-0.408284
-0.411491
-0.41246
-0.552094
-0.553631
-0.556858
-0.565325
-0.580673
-0.608049
-0.660444
-0.756143
-0.913958
-1.10655
-1.30952
-1.11284
-0.941865
-0.783983
-0.655462
-0.573594
-0.546197
-0.532099
-0.529701
-0.527826
-0.514262
-0.516501
-0.519519
-0.526212
-0.542044
-0.571767
-0.626848
-0.72608
-0.89261
-1.12068
-1.26849
-1.12656
-0.93314
-0.778985
-0.685074
-0.638152
-0.603823
-0.609158
-0.603873
-0.601045
-0.4475
-0.449367
-0.452513
-0.457994
-0.470692
-0.496765
-0.545162
-0.632925
-0.778793
-0.970051
-1.07184
-0.950348
-0.782526
-0.704449
-0.659301
-0.62516
-0.618209
-0.617285
-0.613765
-0.611202
-0.359698
-0.360952
-0.363172
-0.367442
-0.376248
-0.394876
-0.430253
-0.494977
-0.601064
-0.733075
-0.797538
-0.694221
-0.600746
-0.585771
-0.580889
-0.56953
-0.57672
-0.57544
-0.57105
-0.567636
-0.264983
-0.265629
-0.266667
-0.268648
-0.273416
-0.284189
-0.30515
-0.344124
-0.407334
-0.487249
-0.5203
-0.438665
-0.429765
-0.452748
-0.467061
-0.495553
-0.487945
-0.488015
-0.486396
-0.485401
-0.176792
-0.176922
-0.177077
-0.177231
-0.178521
-0.182586
-0.191146
-0.208043
-0.234054
-0.268684
-0.270969
-0.256156
-0.296268
-0.321026
-0.352666
-0.388627
-0.385433
-0.385789
-0.386709
-0.385953
-0.104563
-0.104324
-0.104015
-0.103166
-0.102375
-0.10216
-0.10252
-0.104539
-0.105399
-0.095251
-0.110021
-0.150514
-0.186199
-0.226801
-0.260156
-0.278483
-0.281889
-0.285833
-0.287017
-0.287038
-0.0518252
-0.0514102
-0.050971
-0.0498986
-0.0484578
-0.0465968
-0.0435569
-0.0393088
-0.0322133
-0.0151194
-0.0215573
-0.0738494
-0.115265
-0.152027
-0.177711
-0.189871
-0.196743
-0.20011
-0.201024
-0.201398
-0.0178319
-0.0174137
-0.0170618
-0.016268
-0.0150256
-0.0131912
-0.00982804
-0.00470623
0.00274778
0.0139518
0.00919419
-0.0339144
-0.0696087
-0.0967402
-0.117823
-0.125725
-0.129773
-0.13206
-0.133173
-0.133741
0.000983977
0.00133533
0.00156649
0.0019023
0.00267073
0.00383285
0.00621656
0.00998706
0.0153475
0.021379
0.0168934
-0.0140643
-0.0408759
-0.0606184
-0.074016
-0.0799855
-0.0826858
-0.0840218
-0.0848147
-0.0852573
0.00850419
0.008752
0.0088765
0.00885541
0.00917204
0.00973558
0.0110742
0.0132923
0.0164408
0.0191959
0.0156554
-0.00470864
-0.0228566
-0.0355262
-0.043955
-0.0478364
-0.0496218
-0.0502756
-0.0507665
-0.0510307
0.00851439
0.00867916
0.00875655
0.00857052
0.00857611
0.00870905
0.00924463
0.0102366
0.0116617
0.0125457
0.0104478
-0.000918652
-0.0112032
-0.0178268
-0.022255
-0.0242791
-0.0251745
-0.0253836
-0.0256842
-0.0258726
0.00368972
0.00376494
0.00381705
0.00364333
0.00357643
0.00355968
0.00366922
0.00400364
0.0044204
0.00455849
0.00386151
-6.62781e-05
-0.00343231
-0.00520744
-0.00661131
-0.00714719
-0.00740523
-0.00739316
-0.00750293
-0.00758939
-1.5269
-0.641589
-0.367994
-0.0786957
0.116873
0.286284
0.4288
0.573502
0.727755
0.804555
-0.507697
-0.0795353
-0.0512948
0.14516
0.281887
0.403982
0.510242
0.60365
0.635098
0.590569
-0.101667
0.124365
0.168978
0.309977
0.404741
0.491611
0.563335
0.616736
0.621377
0.633426
0.143652
0.297614
0.334355
0.444483
0.504066
0.566926
0.614897
0.648834
0.659035
0.682008
0.33518
0.440835
0.470848
0.546085
0.590635
0.635338
0.669327
0.69446
0.70505
0.735994
0.482538
0.556048
0.586583
0.633506
0.670716
0.702583
0.728091
0.749186
0.763981
0.791817
0.606032
0.658995
0.685371
0.715207
0.74424
0.768956
0.789643
0.809201
0.824453
0.850687
0.712298
0.751031
0.772696
0.794224
0.816014
0.836076
0.853844
0.872235
0.887226
0.910813
0.808284
0.83752
0.854933
0.870784
0.887534
0.904002
0.91977
0.936921
0.950514
0.972818
0.897583
0.918578
0.933858
0.947371
0.961264
0.975281
0.988863
1.00352
1.01505
1.03472
0.98413
1.00006
1.01408
1.02611
1.03821
1.0499
1.06106
1.07277
1.08043
1.09725
1.06978
1.08275
1.09658
1.10828
1.11886
1.12863
1.1374
1.14565
1.14923
1.16052
1.15921
1.17021
1.18369
1.1929
1.20034
1.20752
1.21473
1.22132
1.22231
1.22974
1.25769
1.26243
1.27046
1.27495
1.27822
1.28269
1.28868
1.29646
1.30028
1.31017
1.37102
1.3573
1.34985
1.34421
1.34153
1.34293
1.34945
1.36187
1.37661
1.40626
1.49185
1.43617
1.4053
1.38823
1.38009
1.3801
1.38876
1.40823
1.44028
1.50945
)
;

boundaryField
{
    wall-4
    {
        type            zeroGradient;
    }
    pressure-outlet-7
    {
        type            fixedValue;
        value           uniform 0;
    }
    velocity-inlet-6
    {
        type            zeroGradient;
    }
    velocity-inlet-5
    {
        type            zeroGradient;
    }
    frontAndBackPlanes
    {
        type            empty;
    }
}


// ************************************************************************* //
