/*--------------------------------*- C++ -*----------------------------------*\
| =========                 |                                                 |
| \\      /  F ield         | OpenFOAM: The Open Source CFD Toolbox           |
|  \\    /   O peration     | Version:  v2012                                 |
|   \\  /    A nd           | Website:  www.openfoam.com                      |
|    \\/     M anipulation  |                                                 |
\*---------------------------------------------------------------------------*/
FoamFile
{
    version     2.0;
    format      ascii;
    class       surfaceScalarField;
    location    "24";
    object      phi;
}
// * * * * * * * * * * * * * * * * * * * * * * * * * * * * * * * * * * * * * //

dimensions      [0 3 -1 0 0 0 0];
oriented        oriented;


internalField   nonuniform List<scalar> 
4262
(
0.10714
0.470849
0.0955631
0.705162
0.0693432
0.858523
0.047273
1.02083
0.0307948
1.21499
0.0195256
1.44949
0.0122027
1.73319
0.00721226
2.07603
0.00341924
2.48904
-0.000288066
2.986
-0.00399165
2.986
-0.00776633
2.48902
-0.0127064
2.07598
-0.0199219
1.73308
-0.0310622
1.44936
-0.0474574
1.21491
-0.069451
1.02076
-0.09561
0.858462
-0.107191
0.705167
0.470797
0.112853
0.357995
0.135265
0.682751
0.120436
0.873352
0.0979129
1.04336
0.0746419
1.23827
0.0529445
1.47119
0.034601
1.75153
0.020374
2.09025
0.00912471
2.50029
-0.000761961
2.99589
-0.0106313
2.99587
-0.0216648
2.50005
-0.0356871
2.09
-0.0539034
1.7513
-0.075581
1.47104
-0.0988405
1.23817
-0.121342
1.04326
-0.135872
0.872992
-0.113144
0.682439
0.357653
0.0919739
0.266022
0.124875
0.64985
0.121094
0.877133
0.105074
1.05938
0.0868544
1.25649
0.0679083
1.49013
0.0488594
1.77058
0.0305932
2.10852
0.01407
2.51681
-0.00148282
3.01144
-0.0169086
3.01129
-0.0331509
2.51629
-0.0511807
2.10803
-0.0699658
1.77008
-0.0884685
1.48954
-0.106158
1.25586
-0.12162
1.05872
-0.125448
0.87682
-0.0922698
0.64926
0.265383
0.0637789
0.202243
0.104409
0.609219
0.106009
0.875534
0.0945386
1.07085
0.0806406
1.27038
0.0662186
1.50455
0.0502088
1.78659
0.0333616
2.12537
0.0161111
2.53406
-0.00212888
3.02968
-0.0202444
3.02941
-0.037238
2.53329
-0.0535838
2.12437
-0.0689859
1.78548
-0.0829151
1.50347
-0.0964995
1.26944
-0.107751
1.06997
-0.105542
0.874612
-0.0642471
0.607965
0.201136
0.0372
0.165043
0.0802045
0.566215
0.0903185
0.86542
0.082799
1.07837
0.0699749
1.28321
0.0581059
1.51642
0.0456744
1.79902
0.0313777
2.13966
0.0153231
2.55011
-0.00282076
3.04782
-0.0207643
3.04735
-0.0363734
2.5489
-0.0500714
2.13807
-0.0619184
1.79733
-0.0732929
1.51484
-0.0856414
1.28179
-0.0925881
1.07692
-0.08171
0.863734
-0.0377413
0.563996
0.163395
0.019269
0.145774
0.0566384
0.528845
0.07198
0.850078
0.0698725
1.08047
0.0609185
1.29216
0.0499878
1.52735
0.0390257
1.80998
0.027339
2.15135
0.0132745
2.56418
-0.00379614
3.06489
-0.0204672
3.06402
-0.0336915
2.56212
-0.044456
2.14884
-0.0547289
1.8076
-0.064996
1.52511
-0.073223
1.29002
-0.0745794
1.07828
-0.058254
0.847408
-0.0198121
0.525555
0.143583
0.0102301
0.135544
0.0407433
0.498332
0.0564429
0.834378
0.05717
1.07975
0.0515654
1.29777
0.0425618
1.53636
0.0327063
1.81984
0.0220734
2.16198
0.00996473
2.57629
-0.00474884
3.07961
-0.0191187
3.07839
-0.0305563
2.57356
-0.0403984
2.15868
-0.0489854
1.81619
-0.0569383
1.53306
-0.0615551
1.29464
-0.0597898
1.07651
-0.0427539
0.830373
-0.0108612
0.493662
0.132722
0.00586791
0.129676
0.030727
0.473473
0.0459676
0.819138
0.0477466
1.07797
0.0436475
1.30187
0.0364514
1.54355
0.027835
1.82845
0.0177557
2.17206
0.00640237
2.58764
-0.00619381
3.0922
-0.0183295
3.09053
-0.0286193
2.58385
-0.0370572
2.16712
-0.0443789
1.82351
-0.0504831
1.53917
-0.0533058
1.29746
-0.0501674
1.07337
-0.0332553
0.81346
-0.0066653
0.467072
0.126056
0.00394716
0.125729
0.024312
0.453108
0.0390432
0.804406
0.0411867
1.07582
0.0375298
1.30552
0.031249
1.54983
0.0234371
1.83627
0.0141141
2.18139
0.00376961
2.59799
-0.00731101
3.10328
-0.0178145
3.10103
-0.026886
2.59292
-0.0348382
2.17507
-0.0412253
1.8299
-0.0458605
1.5438
-0.0480215
1.29962
-0.0441881
1.06954
-0.0273329
0.796605
-0.004926
0.444665
0.12113
0.00261714
0.123111
0.0174776
0.438248
0.0307436
0.79114
0.0334078
1.07316
0.0303201
1.30861
0.0249566
1.5552
0.0183141
1.84291
0.0101689
2.18953
0.000742264
2.60741
-0.00952957
3.11356
-0.0191543
3.11065
-0.0267484
2.60051
-0.0330806
2.1814
-0.0373516
1.83417
-0.040558
1.54701
-0.0417683
1.30083
-0.0370394
1.06481
-0.0210882
0.780654
-0.00378088
0.427357
0.11735
0.00107127
0.12204
0.00992387
0.429395
0.0205184
0.780546
0.0231134
1.07056
0.0206012
1.31112
0.0163485
1.55945
0.0112159
1.84804
0.00501304
2.19573
-0.00252851
2.61495
-0.0117129
3.12274
-0.0199521
3.11889
-0.0253998
2.60596
-0.0287631
2.18476
-0.0317972
1.8372
-0.034193
1.54941
-0.0341161
1.30075
-0.0283768
1.05907
-0.0144276
0.766705
-0.00266474
0.415595
0.114685
9.29683e-05
0.121947
0.00431453
0.425173
0.0118768
0.772984
0.0143518
1.06809
0.0122262
1.31325
0.0082416
1.56344
0.00345681
1.85283
-0.00177735
2.20097
-0.00779098
2.62097
-0.014705
3.12965
-0.0204205
3.12461
-0.0237505
2.60929
-0.0256882
2.1867
-0.0272505
1.83877
-0.027751
1.54991
-0.0266221
1.29963
-0.0207131
1.05316
-0.00940391
0.755396
-0.00181635
0.408007
0.112868
-0.000526564
0.122474
0.00050698
0.42414
0.00525381
0.768237
0.00710163
1.06624
0.00546175
1.31489
0.00225346
1.56664
-0.00190164
1.85698
-0.00689081
2.20596
-0.0124835
2.62656
-0.0182827
3.13545
-0.0226573
3.12898
-0.0252398
2.61187
-0.0264603
2.18792
-0.0261452
1.83845
-0.0252083
1.54897
-0.0231305
1.29755
-0.0169903
1.04702
-0.00740239
0.745808
-0.00169217
0.402297
0.111176
-0.00120523
0.123679
-0.00187354
0.424808
0.00060117
0.765762
0.0017334
1.06511
0.000230411
1.31639
-0.00270528
1.56958
-0.0068361
1.86111
-0.0118206
2.21094
-0.017473
2.63221
-0.0231566
3.14114
-0.0270236
3.13285
-0.0284156
2.61327
-0.0281918
2.1877
-0.0266657
1.83692
-0.0245518
1.54686
-0.0209942
1.29399
-0.0146424
1.04067
-0.00646452
0.73763
-0.00170112
0.397533
0.109475
-0.00196803
0.125647
-0.00418627
0.427026
-0.00434225
0.765918
-0.00426184
1.06503
-0.00562993
1.31776
-0.00806186
1.57201
-0.0116887
1.86474
-0.0165712
2.21582
-0.0223957
2.63804
-0.0282198
3.14696
-0.0318151
3.13645
-0.0323737
2.61382
-0.0310433
2.18637
-0.0287361
1.83462
-0.0255427
1.54366
-0.0207659
1.28921
-0.013819
1.03372
-0.00615811
0.729969
-0.00170553
0.393081
0.10777
-0.00246322
0.12811
-0.00649136
0.431055
-0.00821804
0.767645
-0.00851335
1.06532
-0.00997794
1.31922
-0.0130192
1.57505
-0.0174481
1.86917
-0.0231186
2.22149
-0.0295496
2.64447
-0.0356228
3.15303
-0.0389672
3.13979
-0.0391335
2.61399
-0.03691
2.18415
-0.0331919
1.8309
-0.0279675
1.53844
-0.0214544
1.2827
-0.0136559
1.02592
-0.00633662
0.72265
-0.001872
0.388616
0.105898
-0.00316028
0.131271
-0.00862448
0.436519
-0.0119606
0.770981
-0.0131795
1.06654
-0.0146099
1.32065
-0.017778
1.57822
-0.0230042
1.87439
-0.0298736
2.22836
-0.0374763
2.65207
-0.0441617
3.15972
-0.0472728
3.1429
-0.0468883
2.61361
-0.0437945
2.18105
-0.0391631
1.82627
-0.0327514
1.53203
-0.0250936
1.27504
-0.0162091
1.01704
-0.00801729
0.714458
-0.0024714
0.38307
0.103426
-0.00359325
0.134864
-0.0100504
0.442976
-0.014847
0.775777
-0.0171187
1.06882
-0.0194608
1.323
-0.0238387
1.5826
-0.0305715
1.88113
-0.0390864
2.23688
-0.0482171
2.6612
-0.0558153
3.16732
-0.058917
3.146
-0.0579769
2.61267
-0.053956
2.17703
-0.0477796
1.82009
-0.0391734
1.52342
-0.0290805
1.26495
-0.0186454
1.0066
-0.00970562
0.705518
-0.00312811
0.376493
0.100298
-0.00488323
0.139747
-0.0137535
0.451846
-0.0210011
0.783025
-0.0248594
1.07267
-0.0279053
1.32604
-0.0331714
1.58786
-0.0412454
1.8892
-0.0511347
2.24677
-0.061291
2.67136
-0.0691944
3.17522
-0.0716012
3.14841
-0.0690496
2.61011
-0.0631542
2.17113
-0.0549821
1.81192
-0.0451153
1.51355
-0.0340674
1.2539
-0.0226142
0.995151
-0.01213
0.695034
-0.00390281
0.368266
0.0963954
-0.00593679
0.145684
-0.0165572
0.462467
-0.0260144
0.792482
-0.0324493
1.07911
-0.0383959
1.33199
-0.0462167
1.59569
-0.056234
1.89922
-0.0676701
2.2582
-0.0786861
2.68237
-0.086246
3.18278
-0.0870683
3.14923
-0.0824188
2.60547
-0.0745847
2.1633
-0.0642925
1.80163
-0.0520781
1.50134
-0.0387605
1.24058
-0.0256647
0.982055
-0.014045
0.683414
-0.00457597
0.358797
0.0918194
-0.00816554
0.153849
-0.022914
0.477215
-0.0360889
0.805657
-0.045357
1.08838
-0.0533645
1.34
-0.0632959
1.60562
-0.0755127
1.91143
-0.0885931
2.27128
-0.10011
2.69389
-0.106697
3.18937
-0.10526
3.1478
-0.0976814
2.59789
-0.0865768
2.1522
-0.073425
1.78848
-0.0594652
1.48738
-0.0453188
1.22644
-0.0311979
0.967934
-0.0173479
0.669564
-0.00554619
0.346995
0.0862732
-0.0102352
0.164085
-0.0285433
0.495523
-0.0458425
0.822956
-0.059348
1.10188
-0.0719078
1.35256
-0.0859373
1.61965
-0.101182
1.92668
-0.115985
2.28609
-0.127705
2.70561
-0.132494
3.19416
-0.127455
3.14276
-0.116116
2.58655
-0.102041
2.13812
-0.0865027
1.77294
-0.0702356
1.47111
-0.0536509
1.20985
-0.0368704
0.951153
-0.0205313
0.653225
-0.00658826
0.333052
0.0796849
-0.0150034
0.179088
-0.0398252
0.520345
-0.0619188
0.84505
-0.0797698
1.11973
-0.0966497
1.36944
-0.114619
1.63762
-0.132775
1.94484
-0.149149
2.30246
-0.160355
2.71682
-0.162451
3.19625
-0.153608
3.13391
-0.138424
2.57136
-0.120218
2.11992
-0.10098
1.7537
-0.0819772
1.45211
-0.0634876
1.19136
-0.0447687
0.932435
-0.0252164
0.633673
-0.00787401
0.31571
0.0718109
-0.0192188
0.198307
-0.0514294
0.552556
-0.0817195
0.87534
-0.106315
1.14433
-0.129556
1.39268
-0.152626
1.66069
-0.174225
1.96643
-0.191624
2.31986
-0.201573
2.72676
-0.200117
3.1948
-0.185906
3.1197
-0.165353
2.55081
-0.142996
2.09756
-0.120688
1.73139
-0.0990114
1.43043
-0.0773434
1.16969
-0.0540752
0.909166
-0.0296751
0.609273
-0.00900363
0.295038
0.0628073
-0.0335027
0.231809
-0.0774883
0.596541
-0.115452
0.913304
-0.146115
1.17499
-0.175769
1.42233
-0.203297
1.68821
-0.22669
1.98983
-0.243402
2.33657
-0.250238
2.7336
-0.243138
3.1877
-0.222673
3.09924
-0.197339
2.52548
-0.170477
2.0707
-0.143849
1.70476
-0.11815
1.40473
-0.092576
1.14412
-0.0654954
0.882086
-0.0364806
0.580258
-0.0106967
0.269254
0.0521106
-0.046939
0.278748
-0.113678
0.66328
-0.166008
0.965634
-0.205342
1.21433
-0.241406
1.45839
-0.270616
1.71742
-0.293224
2.01244
-0.306693
2.35004
-0.308059
2.73497
-0.293837
3.17348
-0.266541
3.07194
-0.23494
2.49388
-0.202957
2.03871
-0.172617
1.67442
-0.143987
1.3761
-0.114784
1.11492
-0.0810991
0.848401
-0.042084
0.541243
-0.0108357
0.238006
0.0412749
-0.0315473
0.310296
-0.0874416
0.719174
-0.137071
1.01526
-0.181231
1.25848
-0.222687
1.49985
-0.260725
1.75546
-0.29542
2.04713
-0.323985
2.37861
-0.342389
2.75337
-0.343655
3.17474
-0.323578
3.05186
-0.291822
2.46212
-0.253867
2.00076
-0.212529
1.63309
-0.169755
1.33333
-0.125335
1.0705
-0.0779037
0.80097
-0.0341927
0.497532
-0.00738864
0.211202
0.0338863
-0.00909315
0.319389
-0.0373556
0.747437
-0.074476
1.05238
-0.112027
1.29604
-0.148765
1.53659
-0.183561
1.79026
-0.214874
2.07844
-0.239813
2.40355
-0.253842
2.7674
-0.250274
3.17118
-0.227993
3.02958
-0.194829
2.42896
-0.156158
1.96209
-0.116497
1.59342
-0.0777079
1.29454
-0.0415497
1.03434
-0.012528
0.771948
0.00319206
0.481812
0.0039587
0.210435
0.0378449
0.00358873
0.3158
-0.0159806
0.767006
-0.0432076
1.07961
-0.0729976
1.32583
-0.103254
1.56685
-0.133053
1.82006
-0.160307
2.1057
-0.181926
2.42517
-0.193652
2.77912
-0.190279
3.1678
-0.168481
3.00778
-0.135917
2.39639
-0.100283
1.92645
-0.0652076
1.55835
-0.0327836
1.26212
-0.0056907
1.00725
0.0129495
0.753308
0.0161475
0.478614
0.00746497
0.219118
0.0453099
0.00359653
0.312204
-0.00673196
0.777335
-0.0269922
1.09987
-0.0514064
1.35024
-0.0763613
1.5918
-0.101535
1.84523
-0.12503
2.12919
-0.143855
2.44399
-0.153843
2.78911
-0.148972
3.16293
-0.127683
2.98649
-0.100518
2.36923
-0.0717424
1.89768
-0.0435567
1.53016
-0.017706
1.23627
0.00381081
0.985729
0.016702
0.740416
0.0168389
0.478477
0.00675282
0.229204
0.0520627
0.00601577
0.306188
-0.00094638
0.784297
-0.0187245
1.11765
-0.0393933
1.37091
-0.0606659
1.61307
-0.0825318
1.8671
-0.103131
2.14979
-0.119775
2.46063
-0.128831
2.79817
-0.125281
3.15938
-0.108852
2.97007
-0.0858009
2.34618
-0.0600989
1.87198
-0.0349947
1.50506
-0.0122907
1.21356
0.00571466
0.967724
0.0148086
0.731323
0.012891
0.480394
0.00464661
0.237448
0.0567094
0.00614005
0.300048
0.00110769
0.789329
-0.0144489
1.13321
-0.0328624
1.38932
-0.0518807
1.63209
-0.0713448
1.88656
-0.0898255
2.16827
-0.105023
2.47583
-0.113572
2.80672
-0.110897
3.15671
-0.0951522
2.95432
-0.0735376
2.32456
-0.0515527
1.84999
-0.0307542
1.48426
-0.012824
1.19563
0.00106291
0.953837
0.00847032
0.723915
0.00778049
0.481084
0.00268819
0.24254
0.0593975
0.0041544
0.295893
0.000630667
0.792853
-0.0128637
1.1467
-0.0295921
1.40605
-0.0472646
1.64976
-0.0651628
1.90446
-0.0823364
2.18545
-0.0970077
2.4905
-0.106176
2.81588
-0.1055
3.15603
-0.0927497
2.94157
-0.074776
2.30659
-0.0556215
1.83084
-0.0374011
1.46604
-0.0207023
1.17893
-0.00768652
0.940821
-0.00110429
0.717333
0.000821656
0.479158
0.000459944
0.242902
0.0598575
0.00270676
0.293187
-0.000213992
0.795774
-0.0123303
1.15882
-0.0280522
1.42177
-0.0449381
1.66665
-0.061971
1.92149
-0.0784752
2.20195
-0.0929471
2.50498
-0.102307
2.82524
-0.101844
3.15557
-0.0902596
2.92999
-0.073549
2.28988
-0.0553244
1.81261
-0.0371564
1.44787
-0.0233654
1.16514
-0.0133955
0.930851
-0.00700173
0.710939
-0.00476578
0.476922
-0.00152063
0.239657
0.0583369
2.19305e-05
0.293165
-0.00282988
0.798626
-0.0133928
1.16938
-0.0279344
1.43631
-0.0439385
1.68265
-0.0604923
1.93804
-0.0767638
2.21822
-0.0913774
2.51959
-0.101727
2.83559
-0.103893
3.15773
-0.0948338
2.92093
-0.0786607
2.2737
-0.0617371
1.79569
-0.0481578
1.43429
-0.0343354
1.15132
-0.0228829
0.919399
-0.0144198
0.702476
-0.00742586
0.469928
-0.00231091
0.234542
0.056026
-0.000481011
0.293646
-0.00513227
0.803277
-0.0151419
1.17939
-0.0284886
1.44966
-0.0436586
1.69782
-0.0597961
1.95418
-0.0760706
2.2345
-0.0910954
2.53461
-0.102491
2.84699
-0.10597
3.16121
-0.0971939
2.91215
-0.083481
2.25999
-0.0685824
1.78079
-0.0519722
1.41768
-0.0374743
1.13682
-0.0254831
0.907408
-0.0161545
0.693147
-0.00928944
0.463063
-0.00294757
0.2282
0.0530784
-0.00251217
0.296158
-0.007699
0.808464
-0.0171337
1.18882
-0.0294062
1.46193
-0.0437593
1.71218
-0.0595111
1.96993
-0.075909
2.2509
-0.0916468
2.55035
-0.104501
2.85984
-0.110445
3.16716
-0.105253
2.90696
-0.0914733
2.24621
-0.0735804
1.7629
-0.0580592
1.40216
-0.0447279
1.12349
-0.0333785
0.896058
-0.0222361
0.682005
-0.0109596
0.451787
-0.00339283
0.220633
0.0496855
-0.00390803
0.300066
-0.00925688
0.813813
-0.0184491
1.19802
-0.0302772
1.47376
-0.0440192
1.72592
-0.0593701
1.98528
-0.0758537
2.26738
-0.0922697
2.56677
-0.106446
2.87402
-0.114714
3.17543
-0.111505
2.90375
-0.0992343
2.23394
-0.0839339
1.7476
-0.0665001
1.38473
-0.0504271
1.10742
-0.0350702
0.880701
-0.0226327
0.669568
-0.0125022
0.441656
-0.00380084
0.211932
0.0458847
-0.0044396
0.304506
-0.010564
0.819937
-0.0195816
1.20703
-0.0309916
1.48517
-0.0442488
1.73918
-0.0592732
2.00031
-0.075827
2.28393
-0.0929647
2.58391
-0.109018
2.89007
-0.12062
3.18703
-0.120306
2.90344
-0.109306
2.22294
-0.0910021
1.72929
-0.073335
1.36706
-0.0565958
1.09068
-0.0433593
0.867465
-0.0296441
0.655852
-0.014456
0.426468
-0.00424145
0.201718
0.0416433
-0.00443006
0.308936
-0.0109894
0.826496
-0.0200707
1.21612
-0.0313024
1.4964
-0.0443025
1.75218
-0.0590559
2.01506
-0.0755855
2.30046
-0.0932436
2.60156
-0.110301
2.90713
-0.12262
3.19935
-0.124278
2.90509
-0.116208
2.21487
-0.10165
1.71473
-0.0810861
1.3465
-0.0618003
1.07139
-0.0434624
0.849127
-0.0275996
0.63999
-0.0147859
0.413655
-0.00418675
0.191118
0.0374565
-0.00442152
0.313357
-0.0114178
0.833493
-0.0203471
1.22504
-0.0312765
1.50733
-0.0440199
1.76492
-0.0585737
2.02962
-0.0751146
2.317
-0.0932603
2.61971
-0.111915
2.92579
-0.12907
3.2165
-0.136536
2.91256
-0.127841
2.20618
-0.108857
1.69575
-0.0887199
1.32636
-0.0678208
1.05049
-0.0505432
0.831849
-0.0341554
0.623602
-0.0162285
0.395728
-0.0040142
0.178904
0.0334423
-0.00438097
0.317738
-0.0113813
0.840493
-0.0201687
1.23383
-0.0308818
1.51805
-0.0434157
1.77745
-0.0577735
2.04397
-0.0742966
2.33353
-0.0928078
2.63822
-0.112423
2.9454
-0.129876
3.23395
-0.137173
2.91986
-0.133527
2.20253
-0.121739
1.68396
-0.0993218
1.30394
-0.0743033
1.02548
-0.0475394
0.805085
-0.0266174
0.60268
-0.0129329
0.382043
-0.00306683
0.169038
0.0303755
-0.00440427
0.322142
-0.0114482
0.847537
-0.0199173
1.2423
-0.030248
1.52838
-0.0424444
1.78965
-0.0565697
2.0581
-0.0729977
2.34995
-0.0916589
2.65688
-0.112105
2.96585
-0.132743
3.25459
-0.146503
2.93362
-0.145226
2.20125
-0.129571
1.66831
-0.107843
1.28221
-0.0793356
0.996968
-0.052883
0.778633
-0.0283925
0.578189
-0.0100638
0.363714
-0.00259232
0.161566
0.0277832
-0.00431415
0.326457
-0.0111485
0.854371
-0.0193613
1.25051
-0.0293724
1.53839
-0.041224
1.8015
-0.0550531
2.07193
-0.0713421
2.36624
-0.0902961
2.67584
-0.111909
2.98746
-0.134466
3.27715
-0.149221
2.94837
-0.152258
2.20429
-0.144104
1.66015
-0.121183
1.25929
-0.0892384
0.965023
-0.046989
0.736383
-0.00527677
0.536477
0.0179415
0.340496
0.0199758
0.159532
0.047759
-0.00419278
0.330649
-0.0109418
0.86112
-0.0188159
1.25839
-0.0283828
1.54795
-0.0397738
1.81289
-0.0532456
2.0854
-0.0693365
2.38233
-0.0882748
2.69477
-0.110098
3.00928
-0.133445
3.3005
-0.152277
2.9672
-0.161243
2.21326
-0.152925
1.65184
-0.132525
1.23889
-0.0977716
0.93027
-0.0550865
0.693698
-0.00121067
0.482601
0.0302597
0.309026
0.0142773
0.175515
0.0620362
-0.00395752
0.334607
-0.0104153
0.867578
-0.0180057
1.26598
-0.0272054
1.55715
-0.0382197
1.82391
-0.0512964
2.09848
-0.0670962
2.39813
-0.0860209
2.7137
-0.108563
3.03183
-0.134592
3.32652
-0.156177
2.98879
-0.165422
2.2225
-0.166627
1.65304
-0.15093
1.2232
-0.118122
0.897462
-0.0555569
0.631133
0.0435468
0.383498
0.149721
0.202852
0.167315
0.157921
0.229351
-0.00379547
0.338402
-0.0102239
0.874006
-0.0176915
1.27345
-0.0267853
1.56625
-0.0378686
1.83499
-0.0513045
2.11191
-0.0679318
2.41476
-0.0883301
2.7341
-0.113258
3.05675
-0.142593
3.35586
-0.169108
3.01531
-0.189253
2.24265
-0.192495
1.65628
-0.180587
1.21129
-0.149732
0.866607
-0.113221
0.594622
-0.13343
0.403707
-0.367567
0.436989
-0.919774
0.710127
0.891017
-1.58144
-0.00356879
0.341971
-0.00969105
0.880129
-0.0169607
1.28072
-0.0258926
1.57518
-0.0368562
1.84595
-0.0503161
2.12537
-0.0672028
2.43165
-0.0883704
2.75526
-0.115227
3.08361
-0.148844
3.38948
-0.182351
3.04881
-0.204729
2.26502
-0.226489
1.67804
-0.234811
1.21961
-0.235196
0.866992
-0.312534
0.67196
-0.685864
0.777038
-1.39677
1.1479
-2.01277
1.32613
1.22154
-2.34329
-0.00338826
0.345359
-0.00929215
0.886033
-0.0162911
1.28771
-0.0249495
1.58384
-0.035697
1.8567
-0.0491245
2.1388
-0.0662859
2.44881
-0.0882669
2.77725
-0.116642
3.11199
-0.153294
3.42613
-0.190785
3.0863
-0.226774
2.30101
-0.252536
1.7038
-0.264964
1.23204
-0.353168
0.955196
-0.741509
1.0603
-1.49599
1.53151
-2.08328
1.73519
-2.32941
1.57226
1.33895
-2.44683
-0.0031233
0.348483
-0.0086185
0.891528
-0.0153427
1.29444
-0.0237785
1.59227
-0.0343516
1.86727
-0.0477524
2.1522
-0.0650598
2.46612
-0.0875812
2.79977
-0.117557
3.14196
-0.157719
3.46629
-0.202995
3.13158
-0.241102
2.33912
-0.28573
1.74843
-0.380265
1.32657
-0.697135
1.27207
-1.40366
1.76682
-2.00519
2.13305
-2.25085
1.98085
-2.36761
1.68902
1.4062
-2.43486
-0.00287948
0.351362
-0.00806666
0.896715
-0.0144506
1.30082
-0.0225505
1.60037
-0.0328982
1.87762
-0.0461638
2.16547
-0.0635861
2.48354
-0.0867546
2.82294
-0.118229
3.17344
-0.16201
3.51007
-0.213317
3.18289
-0.26773
2.39353
-0.323637
1.80434
-0.494567
1.4975
-1.06153
1.83903
-1.75388
2.45917
-2.09189
2.47106
-2.24691
2.13586
-2.33227
1.77438
1.47302
-2.39909
-0.002731
0.354093
-0.00769381
0.901678
-0.0140437
1.30717
-0.0221884
1.60852
-0.0327696
1.8882
-0.0462767
2.17897
-0.064123
2.50139
-0.0879973
2.84681
-0.12084
3.20628
-0.167212
3.55644
-0.224513
3.24019
-0.279603
2.44862
-0.374726
1.89946
-0.742325
1.8651
-1.45694
2.55365
-1.94921
2.95145
-2.1552
2.67705
-2.26467
2.24533
-2.34281
1.85252
1.53861
-2.4084
-0.00274101
0.356834
-0.00802609
0.906963
-0.0146843
1.31383
-0.0231789
1.61701
-0.0341685
1.89919
-0.0481848
2.19299
-0.066755
2.51996
-0.0917534
2.87181
-0.126634
3.24116
-0.177907
3.60772
-0.241266
3.30355
-0.312117
2.51947
-0.497214
2.08456
-1.01504
2.38293
-1.6459
3.18451
-1.93996
3.24551
-2.09217
2.82926
-2.21016
2.36332
-2.30568
1.94804
1.60311
-2.37018
-0.00267732
0.359511
-0.00801617
0.912302
-0.0150531
1.32087
-0.0240312
1.62599
-0.0355408
1.9107
-0.0502322
2.20768
-0.0696172
2.53934
-0.0957321
2.89792
-0.131974
3.2774
-0.183602
3.65934
-0.248306
3.36825
-0.339756
2.61092
-0.607945
2.35275
-1.22476
2.99974
-1.73271
3.69247
-1.94637
3.45917
-2.09346
2.97635
-2.22413
2.49398
-2.34151
2.06542
1.66524
-2.40363
-0.00255105
0.362062
-0.0083235
0.918074
-0.0157398
1.32828
-0.025129
1.63538
-0.0370572
1.92263
-0.0522587
2.22288
-0.0723355
2.55942
-0.0994197
2.92501
-0.137486
3.31547
-0.195227
3.71708
-0.270115
3.44314
-0.393321
2.73413
-0.750334
2.70976
-1.37012
3.61952
-1.74388
4.06623
-1.92658
3.64186
-2.03803
3.08781
-2.13606
2.59201
-2.21048
2.13985
1.66055
-2.2058
-0.00236392
0.364426
-0.00802948
0.92374
-0.0158554
1.33611
-0.0258058
1.64533
-0.0383483
1.93517
-0.054283
2.23882
-0.075207
2.58034
-0.103469
2.95327
-0.143017
3.35502
-0.198804
3.77287
-0.275946
3.52028
-0.437458
2.89564
-0.865274
3.13758
-1.42401
4.17826
-1.70285
4.34507
-1.8707
3.80971
-1.97264
3.18974
-1.98209
2.60147
-1.92668
2.08443
1.64606
-1.9122
-0.0021219
0.366548
-0.00820736
0.929825
-0.0163593
1.34426
-0.0266381
1.65561
-0.0394548
1.94799
-0.0555802
2.25494
-0.0766557
2.60142
-0.10492
2.98153
-0.144175
3.39427
-0.202791
3.83149
-0.291929
3.60942
-0.484083
3.08779
-0.938211
3.59171
-1.39191
4.63195
-1.5758
4.52897
-1.65345
3.88736
-1.66769
3.20398
-1.52934
2.46312
-1.03777
1.59286
0.608298
-0.00154075
0.368089
-0.00733101
0.935615
-0.0159156
1.35285
-0.0269279
1.66662
-0.0407291
1.96179
-0.0581051
2.27232
-0.0808733
2.62419
-0.111519
3.01218
-0.154574
3.43733
-0.215757
3.89267
-0.312082
3.70574
-0.54833
3.32404
-1.05954
4.10292
-1.44228
5.01469
-1.55309
4.63977
-1.56328
3.89756
-1.47408
3.11478
-1.23644
2.22548
-0.659319
1.01574
-0.051021
-0.00115708
0.369246
-0.00703148
0.94149
-0.0159101
1.36173
-0.0274242
1.67814
-0.0418568
1.97622
-0.060172
2.29063
-0.0843142
2.64833
-0.117132
3.045
-0.163499
3.48369
-0.233085
3.96226
-0.352492
3.82515
-0.638199
3.60975
-1.17215
4.63687
-1.46489
5.30743
-1.5377
4.71258
-1.52567
3.88553
-1.32403
2.91314
-0.813914
1.71536
-0.125351
0.327176
-0.176372
-0.000294816
0.369541
-0.00513517
0.94633
-0.0143136
1.3709
-0.026562
1.69038
-0.0418609
1.99152
-0.0613033
2.31008
-0.087031
2.67406
-0.1219
3.07987
-0.171133
3.53293
-0.244659
4.03578
-0.377648
3.95814
-0.711951
3.94405
-1.23946
5.16438
-1.44009
5.50806
-1.48047
4.75296
-1.4064
3.81146
-1.12124
2.62798
-0.353007
0.947129
0.0360661
-0.0618966
-0.140305
0.00071862
0.368822
-0.00373513
0.950784
-0.0130418
1.38021
-0.0257161
1.70306
-0.0413656
2.00717
-0.0615908
2.3303
-0.0883734
2.70084
-0.124869
3.11636
-0.176802
3.58486
-0.258537
4.11752
-0.417353
4.11696
-0.796669
4.32337
-1.28321
5.65092
-1.42013
5.64498
-1.42738
4.76021
-1.25145
3.63553
-0.749992
2.12652
-0.0818593
0.278996
0.0382773
-0.182033
-0.102028
0.00263307
0.366189
0.000156511
0.95326
-0.00958421
1.38995
-0.0227999
1.71627
-0.039014
2.02339
-0.0600024
2.35129
-0.0879157
2.72875
-0.12591
3.15436
-0.178933
3.63788
-0.265417
4.204
-0.438007
4.28955
-0.864049
4.74941
-1.27003
6.0569
-1.34742
5.72237
-1.3261
4.73889
-1.06079
3.37023
-0.389724
1.45545
-0.0274169
-0.0833107
0.00645621
-0.215906
-0.095572
0.00399283
0.362196
0.0024159
0.954837
-0.00670596
1.39907
-0.0192968
1.72887
-0.0353966
2.03949
-0.0568209
2.37271
-0.0850729
2.757
-0.123025
3.19231
-0.176967
3.69182
-0.269512
4.29655
-0.459466
4.4795
-0.90941
5.19935
-1.22199
6.36948
-1.27409
5.77447
-1.18397
4.64877
-0.85173
3.03799
-0.156616
0.760331
0.00457463
-0.244501
0.00164905
-0.212981
-0.0939229
0.00641776
0.355779
0.00692242
0.954333
-0.000112089
1.40611
-0.0128057
1.74156
-0.029233
2.05591
-0.0507235
2.3942
-0.0787153
2.78499
-0.117152
3.23074
-0.171489
3.74616
-0.266844
4.3919
-0.467704
4.68036
-0.907879
5.63953
-1.1321
6.5937
-1.14791
5.79028
-0.985813
4.48668
-0.538317
2.59049
0.00174296
0.220271
0.0330477
-0.275806
0.0206518
-0.200585
-0.0732711
0.00896902
0.34681
0.012107
0.951195
0.00642145
1.41179
-0.00426636
1.75225
-0.0205174
2.07216
-0.041475
2.41516
-0.0684847
2.812
-0.105085
3.26734
-0.156755
3.79783
-0.251397
4.48654
-0.459877
4.88884
-0.859443
6.03909
-1.02403
6.75829
-1.05464
5.82089
-0.842352
4.27438
-0.305758
2.05389
-0.00910098
-0.0763855
-0.00261582
-0.282291
0.0134048
-0.216606
-0.0598663
0.0130464
0.333763
0.0204312
0.94381
0.0171695
1.41505
0.00709567
1.76232
-0.00861589
2.08788
-0.0274905
2.43404
-0.0524125
2.83693
-0.0860183
3.30095
-0.133725
3.84554
-0.22456
4.57738
-0.431353
5.09563
-0.757879
6.36562
-0.867312
6.86773
-0.870918
5.8245
-0.667526
4.07099
-0.145283
1.53165
-0.0431246
-0.178544
-0.0225276
-0.302888
0.0142168
-0.25335
-0.0456495
0.0174765
0.316287
0.0297294
0.931557
0.0296403
1.41514
0.0216896
1.77027
0.00878697
2.10078
-0.00753838
2.45036
-0.029999
2.85939
-0.0603933
3.33134
-0.101761
3.8869
-0.178344
4.65396
-0.353316
5.2706
-0.589541
6.60185
-0.687226
6.96541
-0.728638
5.86591
-0.588243
3.9306
-0.257545
1.20095
-0.275699
-0.16039
-0.174438
-0.40415
-0.058876
-0.368912
-0.104526
0.0234766
0.29281
0.0427503
0.912283
0.0472561
1.41064
0.0418716
1.77566
0.0317595
2.11089
0.0177273
2.46439
-0.000856952
2.87797
-0.0235278
3.35402
-0.0551657
3.91854
-0.110899
4.70969
-0.236753
5.39646
-0.381503
6.7466
-0.464252
7.04816
-0.553596
5.95526
-0.585581
3.96258
-0.59646
1.21183
-0.647986
-0.108864
-0.469045
-0.583091
-0.233289
-0.604668
-0.337814
0.0296884
0.263122
0.0573119
0.88466
0.0680693
1.39988
0.0675476
1.77618
0.0611635
2.11727
0.05152
2.47404
0.0395126
2.88998
0.0236883
3.36984
0.00416837
3.93806
-0.0133216
4.72718
-0.0451748
5.42831
-0.0852748
6.7867
-0.129993
7.09288
-0.196799
6.02206
-0.326154
4.09194
-0.584757
1.47044
-0.727891
0.0342696
-0.586428
-0.724554
-0.319036
-0.87206
-0.65685
0.0372176
0.225904
0.0761378
0.845739
0.0952822
1.38074
0.0998515
1.77161
0.0979992
2.11913
0.0935986
2.47844
0.0893242
2.89425
0.0846895
3.37447
0.0870929
3.93566
0.0989395
4.71534
0.168658
5.35859
0.310137
6.64522
0.41003
6.99299
0.533461
5.89863
0.448381
4.17702
0.0455377
1.87328
-0.288096
0.367903
-0.407152
-0.605498
-0.247041
-1.03217
-0.903891
0.0436325
0.182272
0.0960333
0.793339
0.12584
1.35093
0.137658
1.75979
0.142342
2.11444
0.143253
2.47753
0.147228
2.89028
0.156756
3.36495
0.177718
3.9147
0.237207
4.65585
0.405451
5.19035
0.843121
6.20755
1.20029
6.63581
1.59196
5.50697
1.63665
4.13233
1.16038
2.34955
0.714262
0.814021
0.270206
-0.161442
0.0690992
-0.831064
-0.834792
0.0484722
0.133799
0.118321
0.72349
0.162765
1.30648
0.183803
1.73875
0.196254
2.10199
0.204123
2.46966
0.218448
2.87595
0.237968
3.34543
0.280022
3.87264
0.395191
4.54068
0.651382
4.93416
1.27496
5.58397
1.68744
6.22333
2.00362
5.19079
2.09046
4.04548
1.75841
2.6816
1.28209
1.29034
0.826914
0.293736
0.337234
-0.341384
-0.497558
0.0461943
0.0876052
0.137872
0.631813
0.202051
1.24231
0.235406
1.7054
0.256226
2.08117
0.270744
2.45514
0.291858
2.85484
0.325138
3.31215
0.377703
3.82008
0.506391
4.41199
0.804232
4.63632
1.46211
4.9261
1.86405
5.82139
2.11815
4.93669
2.21108
3.95255
1.97425
2.91843
1.45882
1.80577
0.913619
0.838941
0.383528
0.188707
-0.11403
0.0382102
0.0493949
0.155805
0.514218
0.244599
1.15351
0.294148
1.65585
0.324664
2.05066
0.346521
2.43328
0.372637
2.82872
0.413333
3.27145
0.459902
3.77351
0.568549
4.30334
0.800158
4.40471
1.31092
4.41533
1.7216
5.41071
1.86433
4.79396
1.88416
3.93272
1.71932
3.08327
1.33019
2.19489
0.851823
1.31731
0.365707
0.674823
0.251677
0.0318001
0.0175949
0.177685
0.368333
0.292255
1.03894
0.359332
1.58877
0.399466
2.01052
0.431456
2.40129
0.45873
2.80145
0.492949
3.23723
0.526663
3.73979
0.590415
4.23959
0.707358
4.28777
1.02673
4.09596
1.43559
5.00185
1.50998
4.71957
1.47438
3.96831
1.33074
3.22692
1.04518
2.48045
0.656939
1.70555
0.264288
1.06747
0.515965
0.032838
-0.0152431
0.181446
0.219725
0.337191
0.883197
0.432086
1.49387
0.484378
1.95823
0.524369
2.3613
0.550465
2.77535
0.57825
3.20945
0.604733
3.71331
0.620665
4.22366
0.668974
4.23946
0.868525
3.89641
1.22333
4.64705
1.26679
4.6761
1.16721
4.0679
1.01413
3.38
0.784854
2.70972
0.478861
2.01155
0.179944
1.36639
0.69591
0.0325655
-0.0478086
0.125873
0.126418
0.281586
0.727484
0.392707
1.38275
0.453211
1.89773
0.488356
2.32616
0.500495
2.76322
0.50608
3.20386
0.500076
3.71932
0.451945
4.27179
0.433807
4.25759
0.495944
3.83427
0.654433
4.48856
0.663652
4.66689
0.591445
4.1401
0.492538
3.4789
0.367542
2.83472
0.212564
2.16652
0.0700701
1.50888
0.76598
0.00845944
-0.056268
0.0171375
0.11774
0.102775
0.641846
0.196127
1.2894
0.268825
1.82503
0.320896
2.27408
0.357376
2.72674
0.375502
3.18574
0.370773
3.72404
0.319105
4.32346
0.280823
4.29588
0.304658
3.81044
0.4122
4.38102
0.416421
4.66266
0.361566
4.19496
0.276012
3.56446
0.177478
2.93325
0.0786093
2.26539
0.00136631
1.58613
0.767346
-0.0165169
-0.0397512
-0.0424556
0.143678
-0.0177769
0.617167
0.0505094
1.22112
0.121815
1.75372
0.182552
2.21335
0.235402
2.67388
0.255167
3.16597
0.256366
3.72285
0.208182
4.37164
0.147809
4.35625
0.151529
3.80672
0.238133
4.29442
0.230247
4.67055
0.183583
4.24162
0.113581
3.63446
0.0510888
2.99575
-0.00170752
2.31819
-0.0288183
1.61324
0.738528
-0.031293
-0.00845819
-0.08062
0.193005
-0.0910955
0.627643
-0.043386
1.17341
0.0270174
1.68332
0.0922866
2.14808
0.151035
2.61514
0.175629
3.14138
0.190208
3.70827
0.143692
4.41816
0.0628647
4.43708
0.0228527
3.84673
0.088621
4.22865
0.0799159
4.67925
0.0339871
4.28755
-0.00473304
3.67318
-0.0385102
3.02952
-0.0650605
2.34474
-0.058657
1.60683
0.679871
-0.0355351
0.0270769
-0.0939237
0.251394
-0.11871
0.652429
-0.0879786
1.14268
-0.0244438
1.61978
0.0432151
2.08042
0.108281
2.55007
0.150708
3.09895
0.176428
3.68255