/*--------------------------------*- C++ -*----------------------------------*\
| =========                 |                                                 |
| \\      /  F ield         | OpenFOAM: The Open Source CFD Toolbox           |
|  \\    /   O peration     | Version:  v2012                                 |
|   \\  /    A nd           | Website:  www.openfoam.com                      |
|    \\/     M anipulation  |                                                 |
\*---------------------------------------------------------------------------*/
FoamFile
{
    version     2.0;
    format      ascii;
    class       volVectorField;
    location    "24";
    object      U;
}
// * * * * * * * * * * * * * * * * * * * * * * * * * * * * * * * * * * * * * //

dimensions      [0 1 -1 0 0 0 0];


internalField   nonuniform List<vector> 
2200
(
(0.878865 -0.0304119 0)
(1.0058 -0.0512853 0)
(1.00327 -0.0353855 0)
(1.00021 -0.0244077 0)
(0.999827 -0.0166043 0)
(1.00002 -0.0106139 0)
(1 -0.00672807 0)
(0.999921 -0.00416698 0)
(0.999881 -0.00227706 0)
(1.00016 -0.000763975 0)
(1.00004 0.00101415 0)
(0.999893 0.00253161 0)
(0.99993 0.00439976 0)
(1 0.00694445 0)
(1.00003 0.0107542 0)
(0.999792 0.0166986 0)
(1.00022 0.024485 0)
(1.00337 0.0353911 0)
(1.00583 0.0513156 0)
(0.878894 0.0304249 0)
(0.711973 -0.0327568 0)
(0.996641 -0.0629976 0)
(1.0334 -0.0561662 0)
(1.02506 -0.0464669 0)
(1.0161 -0.0361377 0)
(1.00975 -0.0264002 0)
(1.00587 -0.01821 0)
(1.00368 -0.0114895 0)
(1.00256 -0.00610998 0)
(1.00206 -0.00170897 0)
(1.00208 0.00238734 0)
(1.00252 0.00673922 0)
(1.00359 0.0120093 0)
(1.00575 0.0186209 0)
(1.00959 0.0268083 0)
(1.01602 0.0365488 0)
(1.02495 0.0468235 0)
(1.03315 0.0565817 0)
(0.996502 0.063164 0)
(0.711729 0.0328217 0)
(0.535615 -0.0238793 0)
(0.969931 -0.056886 0)
(1.05626 -0.0546807 0)
(1.05209 -0.048792 0)
(1.03619 -0.0406178 0)
(1.02436 -0.0326216 0)
(1.0158 -0.0243579 0)
(1.01041 -0.016377 0)
(1.00731 -0.00898851 0)
(1.00594 -0.00240715 0)
(1.00586 0.00366031 0)
(1.00713 0.0101694 0)
(1.01025 0.0174018 0)
(1.01558 0.0253182 0)
(1.02422 0.0334297 0)
(1.03599 0.0412233 0)
(1.05182 0.0492923 0)
(1.05606 0.0546373 0)
(0.969361 0.0572234 0)
(0.534816 0.0239247 0)
(0.392599 -0.0135892 0)
(0.911914 -0.0462328 0)
(1.05747 -0.0467358 0)
(1.06919 -0.043931 0)
(1.05449 -0.0378561 0)
(1.03935 -0.0313452 0)
(1.02772 -0.0245309 0)
(1.01908 -0.0174557 0)
(1.01339 -0.0101508 0)
(1.01064 -0.00272807 0)
(1.01052 0.00452955 0)
(1.01313 0.0118908 0)
(1.01869 0.0190437 0)
(1.02735 0.0258621 0)
(1.03873 0.0324169 0)
(1.05381 0.0387612 0)
(1.06845 0.0446894 0)
(1.05637 0.04747 0)
(0.910689 0.0465313 0)
(0.391099 0.0136814 0)
(0.308481 -0.00442433 0)
(0.847347 -0.0322159 0)
(1.04964 -0.0396539 0)
(1.07938 -0.037876 0)
(1.06778 -0.0329487 0)
(1.05127 -0.0272316 0)
(1.03826 -0.0221336 0)
(1.0283 -0.0163163 0)
(1.02131 -0.00972254 0)
(1.01748 -0.00251175 0)
(1.01735 0.00491105 0)
(1.02095 0.0119826 0)
(1.02772 0.0183478 0)
(1.03727 0.0239142 0)
(1.05028 0.0287489 0)
(1.06675 0.0342746 0)
(1.07815 0.0389635 0)
(1.04803 0.0406019 0)
(0.844842 0.0326105 0)
(0.30606 0.00453432 0)
(0.265393 9.73604e-05 0)
(0.789655 -0.0198521 0)
(1.03365 -0.0312293 0)
(1.08392 -0.0318752 0)
(1.07742 -0.0284401 0)
(1.06055 -0.0234278 0)
(1.04689 -0.0190381 0)
(1.0361 -0.0142274 0)
(1.02834 -0.00861248 0)
(1.02403 -0.00200372 0)
(1.0238 0.00524438 0)
(1.02769 0.0115484 0)
(1.03504 0.0167678 0)
(1.04578 0.0211889 0)
(1.05927 0.0253871 0)
(1.07598 0.0300251 0)
(1.08218 0.0331443 0)
(1.03116 0.032217 0)
(0.7858 0.0202822 0)
(0.26212 5.51343e-06 0)
(0.242006 0.00109788 0)
(0.740303 -0.0118854 0)
(1.01422 -0.0240861 0)
(1.08419 -0.0259703 0)
(1.0831 -0.023938 0)
(1.0677 -0.0200004 0)
(1.0538 -0.0160337 0)
(1.04269 -0.0118125 0)
(1.0345 -0.00699191 0)
(1.02974 -0.00120189 0)
(1.02932 0.00527834 0)
(1.03339 0.0108022 0)
(1.0412 0.015259 0)
(1.05198 0.0191718 0)
(1.06564 0.0225103 0)
(1.08082 0.0260567 0)
(1.08143 0.0276857 0)
(1.01023 0.0252838 0)
(0.734639 0.0124039 0)
(0.237697 -0.000982954 0)
(0.228567 0.00111335 0)
(0.699595 -0.00749004 0)
(0.994326 -0.0193823 0)
(1.08166 -0.0216403 0)
(1.08607 -0.02021 0)
(1.07252 -0.0170941 0)
(1.05904 -0.0137765 0)
(1.04837 -0.00976051 0)
(1.04058 -0.00521696 0)
(1.03593 -3.16982e-07 0)
(1.0355 0.00531644 0)
(1.03939 0.0101832 0)
(1.04653 0.0141653 0)
(1.05642 0.0173726 0)
(1.06979 0.0203427 0)
(1.08288 0.0229286 0)
(1.07775 0.0237847 0)
(0.98852 0.0209149 0)
(0.691648 0.00814971 0)
(0.223034 -0.000969279 0)
(0.220054 0.000748734 0)
(0.665838 -0.00502697 0)
(0.974839 -0.0163531 0)
(1.07838 -0.0186709 0)
(1.08806 -0.0173857 0)
(1.07604 -0.0148403 0)
(1.06269 -0.0117441 0)
(1.05252 -0.00797451 0)
(1.04508 -0.0037401 0)
(1.04056 0.000927395 0)
(1.03987 0.00531391 0)
(1.04313 0.00956203 0)
(1.04957 0.0131905 0)
(1.05956 0.0163727 0)
(1.07244 0.0188275 0)
(1.08366 0.0206656 0)
(1.07283 0.0213513 0)
(0.966795 0.0182034 0)
(0.655134 0.00581539 0)
(0.212986 -0.000560443 0)
(0.214546 0.000357505 0)
(0.640206 -0.00293807 0)
(0.957776 -0.0126711 0)
(1.07572 -0.0151156 0)
(1.09042 -0.0140793 0)
(1.07921 -0.0120458 0)
(1.06557 -0.00942317 0)
(1.0551 -0.00607961 0)
(1.04749 -0.00224051 0)
(1.04284 0.00202978 0)
(1.04188 0.00609633 0)
(1.04496 0.00986971 0)
(1.05142 0.0128427 0)
(1.06086 0.0154453 0)
(1.0739 0.0168224 0)
(1.08459 0.0180874 0)
(1.06838 0.0184271 0)
(0.946874 0.0149094 0)
(0.626369 0.00390551 0)
(0.205663 -0.000118122 0)
(0.211648 0.000133036 0)
(0.623737 -0.00105835 0)
(0.94348 -0.00820566 0)
(1.07312 -0.0104572 0)
(1.09284 -0.00972741 0)
(1.0825 -0.00804641 0)
(1.06875 -0.00603565 0)
(1.05776 -0.00354132 0)
(1.04955 -0.000545807 0)
(1.04442 0.00309796 0)
(1.04328 0.00692913 0)
(1.04639 0.00981589 0)
(1.0532 0.0119473 0)
(1.063 0.0129876 0)
(1.07627 0.0143556 0)
(1.08527 0.0151899 0)
(1.06315 0.0147014 0)
(0.928624 0.0109119 0)
(0.605718 0.0022725 0)
(0.200297 0.00012686 0)
(0.21078 -4.54817e-05 0)
(0.614497 8.91292e-06 0)
(0.932183 -0.00432568 0)
(1.07067 -0.00650036 0)
(1.09524 -0.00612317 0)
(1.08607 -0.00443692 0)
(1.07258 -0.00245767 0)
(1.06166 -0.000378934 0)
(1.05317 0.00206192 0)
(1.04766 0.00480381 0)
(1.04613 0.007803 0)
(1.0489 0.00962148 0)
(1.05537 0.010697 0)
(1.06531 0.0115147 0)
(1.07788 0.0120076 0)
(1.08515 0.0121424 0)
(1.05756 0.0111387 0)
(0.913839 0.00747502 0)
(0.592848 0.00134864 0)
(0.196754 0.000224378 0)
(0.211262 -0.000102681 0)
(0.611541 0.000753543 0)
(0.925664 -0.00147112 0)
(1.06881 -0.00331186 0)
(1.09714 -0.00303299 0)
(1.08922 -0.00167176 0)
(1.07609 -7.41256e-05 0)
(1.06546 0.00186886 0)
(1.05729 0.00423925 0)
(1.05181 0.00660528 0)
(1.04973 0.00905464 0)
(1.05154 0.0103451 0)
(1.05689 0.0111788 0)
(1.06551 0.0116624 0)
(1.07755 0.0110789 0)
(1.08381 0.0107673 0)
(1.05134 0.00947353 0)
(0.901096 0.00574087 0)
(0.583408 0.00121351 0)
(0.193664 0.00027809 0)
(0.212751 0.000148802 0)
(0.611733 0.00112748 0)
(0.920984 0.000301929 0)
(1.06717 -0.000961085 0)
(1.09828 -0.000623768 0)
(1.09096 0.000509094 0)
(1.07787 0.00199104 0)
(1.06715 0.00402529 0)
(1.05895 0.00637374 0)
(1.05335 0.00879588 0)
(1.0508 0.0110102 0)
(1.052 0.0121034 0)
(1.05696 0.0123437 0)
(1.06505 0.0120809 0)
(1.07647 0.0110292 0)
(1.08129 0.0101803 0)
(1.04507 0.00831889 0)
(0.890825 0.00472878 0)
(0.576459 0.00126809 0)
(0.190909 0.000303424 0)
(0.215675 0.000408225 0)
(0.61366 0.00154496 0)
(0.919749 0.00205526 0)
(1.06648 0.00153781 0)
(1.09907 0.00200467 0)
(1.09219 0.00289961 0)
(1.07921 0.00410289 0)
(1.06833 0.00604873 0)
(1.05981 0.00838563 0)
(1.05374 0.0110102 0)
(1.05062 0.013108 0)
(1.05127 0.0141039 0)
(1.05587 0.0139227 0)
(1.06371 0.0129807 0)
(1.07449 0.0117917 0)
(1.07776 0.0103604 0)
(1.03858 0.00792521 0)
(0.881485 0.00428188 0)
(0.569748 0.00132632 0)
(0.187919 0.000307293 0)
(0.219115 0.000432048 0)
(0.617648 0.00205423 0)
(0.920803 0.00352552 0)
(1.06652 0.0033887 0)
(1.10039 0.00383619 0)
(1.09425 0.00487668 0)
(1.08173 0.00641384 0)
(1.07099 0.00872268 0)
(1.0622 0.0112998 0)
(1.05539 0.0142128 0)
(1.05127 0.016233 0)
(1.05079 0.0171164 0)
(1.05433 0.0166754 0)
(1.06125 0.015329 0)
(1.07107 0.0133729 0)
(1.07263 0.0110123 0)
(1.03073 0.00777651 0)
(0.872236 0.00416755 0)
(0.563538 0.00150924 0)
(0.184965 0.000335035 0)
(0.22462 0.000533965 0)
(0.626146 0.00262988 0)
(0.92442 0.00482285 0)
(1.06746 0.00539775 0)
(1.10176 0.00585085 0)
(1.09682 0.00676129 0)
(1.08513 0.00863217 0)
(1.07488 0.0113541 0)
(1.06602 0.0144932 0)
(1.05854 0.0178392 0)
(1.05329 0.0198881 0)
(1.05155 0.0206106 0)
(1.05369 0.0198031 0)
(1.0594 0.0181594 0)
(1.06746 0.0157322 0)
(1.06718 0.0127733 0)
(1.02302 0.00907875 0)
(0.863612 0.0050848 0)
(0.556504 0.0020333 0)
(0.181192 0.000426974 0)
(0.229621 0.000631077 0)
(0.632774 0.00296332 0)
(0.928572 0.0057705 0)
(1.06916 0.00691173 0)
(1.10358 0.00771668 0)
(1.09966 0.00910555 0)
(1.08881 0.0115598 0)
(1.07876 0.0149572 0)
(1.0696 0.0188586 0)
(1.06125 0.0227316 0)
(1.05463 0.0249778 0)
(1.05154 0.0255212 0)
(1.05201 0.024444 0)
(1.05619 0.0222462 0)
(1.06199 0.0191951 0)
(1.05937 0.014988 0)
(1.01254 0.0103293 0)
(0.852409 0.0059681 0)
(0.547521 0.00258278 0)
(0.176356 0.000536451 0)
(0.237805 0.000849283 0)
(0.645958 0.00402451 0)
(0.937076 0.0079577 0)
(1.07251 0.0100568 0)
(1.10569 0.0112146 0)
(1.10288 0.0128424 0)
(1.09288 0.015872 0)
(1.08287 0.0198607 0)
(1.07302 0.0243096 0)
(1.06327 0.0284752 0)
(1.05503 0.0307181 0)
(1.05045 0.0306991 0)
(1.04945 0.0288961 0)
(1.05199 0.0257897 0)
(1.05559 0.0219577 0)
(1.05077 0.0172931 0)
(1.0025 0.0123142 0)
(0.842285 0.00744556 0)
(0.537559 0.00324026 0)
(0.170403 0.000650416 0)
(0.246138 0.00111595 0)
(0.657856 0.00478608 0)
(0.945885 0.00962578 0)
(1.07733 0.012717 0)
(1.10941 0.0151539 0)
(1.10742 0.0180656 0)
(1.09809 0.0219462 0)
(1.0879 0.0266642 0)
(1.07708 0.0316997 0)
(1.06569 0.0359664 0)
(1.05553 0.0378522 0)
(1.04899 0.0369531 0)
(1.04607 0.034234 0)
(1.04651 0.0303429 0)
(1.04781 0.0255402 0)
(1.04022 0.019803 0)
(0.989035 0.0138967 0)
(0.826986 0.00851401 0)
(0.52381 0.00381238 0)
(0.162901 0.00075908 0)
(0.259147 0.00144397 0)
(0.677735 0.00669648 0)
(0.960535 0.0132427 0)
(1.08555 0.0177988 0)
(1.1154 0.021189 0)
(1.11381 0.0249202 0)
(1.10466 0.0298031 0)
(1.09386 0.0353926 0)
(1.08159 0.0409248 0)
(1.06796 0.045071 0)
(1.05519 0.046311 0)
(1.04633 0.0442747 0)
(1.04149 0.0401937 0)
(1.03974 0.0348815 0)
(1.03866 0.0289432 0)
(1.02901 0.0227548 0)
(0.976749 0.0165432 0)
(0.814616 0.0105974 0)
(0.510278 0.00467336 0)
(0.154585 0.000884864 0)
(0.274297 0.00201389 0)
(0.700705 0.00812016 0)
(0.97858 0.0166723 0)
(1.09713 0.022943 0)
(1.12413 0.0281799 0)
(1.12212 0.0339187 0)
(1.11243 0.0403468 0)
(1.1004 0.0468958 0)
(1.08616 0.0528992 0)
(1.07003 0.0567733 0)
(1.05465 0.056829 0)
(1.04316 0.0530752 0)
(1.0358 0.0474215 0)
(1.0317 0.0410655 0)
(1.02837 0.0341079 0)
(1.01605 0.0269069 0)
(0.959976 0.019614 0)
(0.793007 0.0124995 0)
(0.489408 0.0055456 0)
(0.143536 0.00105907 0)
(0.295834 0.00288667 0)
(0.731715 0.0119822 0)
(1.00235 0.0224658 0)
(1.11261 0.0309207 0)
(1.13612 0.0377674 0)
(1.13293 0.0456213 0)
(1.12181 0.0533024 0)
(1.10758 0.0610063 0)
(1.09048 0.0672938 0)
(1.0709 0.0704547 0)
(1.05181 0.0690125 0)
(1.0373 0.0636631 0)
(1.0279 0.0562931 0)
(1.02173 0.0480693 0)
(1.01631 0.0397187 0)
(1.00197 0.0314886 0)
(0.944053 0.0234206 0)
(0.776318 0.0154309 0)
(0.470647 0.0067785 0)
(0.13204 0.00116122 0)
(0.326412 0.00400382 0)
(0.773844 0.0148407 0)
(1.03387 0.0297069 0)
(1.13392 0.040873 0)
(1.15264 0.050657 0)
(1.14662 0.0608635 0)
(1.13249 0.0706756 0)
(1.115 0.0793476 0)
(1.0943 0.0855639 0)
(1.071 0.0877311 0)
(1.04862 0.0844052 0)
(1.03115 0.0765534 0)
(1.0187 0.0669891 0)
(1.01006 0.0572621 0)
(1.00251 0.0475742 0)
(0.985366 0.0382325 0)
(0.921994 0.0286037 0)
(0.744949 0.018442 0)
(0.438652 0.00776291 0)
(0.116083 0.00132387 0)
(0.363015 0.00790158 0)
(0.825228 0.0245643 0)
(1.07381 0.0419736 0)
(1.16067 0.0570804 0)
(1.17299 0.0685748 0)
(1.16273 0.0823004 0)
(1.14452 0.0932312 0)
(1.12277 0.102098 0)
(1.09752 0.107615 0)
(1.06942 0.107897 0)
(1.04227 0.101813 0)
(1.02114 0.0915329 0)
(1.00687 0.0800388 0)
(0.996437 0.0682377 0)
(0.986691 0.0568512 0)
(0.966567 0.0456124 0)
(0.898893 0.034272 0)
(0.720072 0.0224658 0)
(0.413381 0.00967331 0)
(0.101737 0.00126853 0)
(0.446573 0.0115093 0)
(0.904995 0.0346468 0)
(1.12633 0.0615891 0)
(1.19357 0.0798783 0)
(1.19885 0.0960996 7.68076e-35)
(1.18113 0.111534 -5.08634e-35)
(1.15719 0.122488 0)
(1.12983 0.130763 0)
(1.09928 0.134465 0)
(1.06639 0.13205 0)
(1.03567 0.122974 0)
(1.01175 0.109708 0)
(0.993733 0.0953368 0)
(0.980381 0.081637 0)
(0.968397 0.0686414 0)
(0.944454 0.0561711 0)
(0.868711 0.0427486 0)
(0.674475 0.0276432 0)
(0.362785 0.0101663 0)
(0.0784618 0.00101742 0)
(0.513929 0.0265161 -6.88707e-21)
(0.996132 0.0589822 4.58391e-21)
(1.18345 0.0940041 0)
(1.22958 0.115848 1.0839e-21)
(1.22518 0.135085 -8.78286e-22)
(1.19912 0.150051 5.36632e-35)
(1.16875 0.159941 0)
(1.13524 0.166627 4.89491e-21)
(1.09889 0.167885 -1.75176e-20)
(1.06013 0.162499 3.86342e-21)
(1.02337 0.149877 0)
(0.994271 0.133027 -1.26264e-20)
(0.974329 0.116727 -1.57953e-20)
(0.958986 0.100842 2.77751e-20)
(0.943091 0.0858665 -2.23336e-20)
(0.912233 0.0704983 0)
(0.823628 0.0534956 -8.57078e-21)
(0.615338 0.0343981 0)
(0.313074 0.0147838 -4.63324e-20)
(0.0606719 0.00178186 5.4818e-20)
(0.543608 0.0548719 1.05059e-23)
(1.0499 0.102295 -4.34024e-20)
(1.22775 0.145569 1.16928e-20)
(1.26243 0.164422 1.67225e-20)
(1.24904 0.183266 -1.14663e-21)
(1.21504 0.19622 2.6288e-21)
(1.1781 0.204299 0)
(1.13824 0.20892 0)
(1.09568 0.207648 2.74319e-20)
(1.05072 0.199269 0)
(1.00903 0.183353 4.33908e-20)
(0.97647 0.165195 1.35466e-20)
(0.950216 0.146658 3.33816e-22)
(0.928973 0.129458 -3.11694e-20)
(0.909517 0.113404 0)
(0.875059 0.0980649 0)
(0.784099 0.0771158 -1.44538e-19)
(0.583641 0.054152 3.62487e-19)
(0.300284 0.0245563 -2.1537e-19)
(0.0593028 0.00576212 -2.55357e-19)
(0.546936 0.0787278 7.70506e-20)
(1.07932 0.160161 -2.25991e-20)
(1.26054 0.207673 -5.92974e-21)
(1.28872 0.223923 -3.2301e-20)
(1.2677 0.239746 1.37517e-20)
(1.22719 0.248665 -1.80526e-21)
(1.18429 0.253404 4.64189e-21)
(1.13846 0.254893 0)
(1.08987 0.250546 -5.685e-20)
(1.03888 0.239217 6.32066e-20)
(0.991314 0.221441 -1.18645e-19)
(0.952585 0.200059 5.78801e-20)
(0.924163 0.180262 -4.27136e-20)
(0.90171 0.162358 9.35121e-20)
(0.878671 0.145956 0)
(0.84214 0.12968 -3.67472e-20)
(0.754914 0.109014 0)
(0.570121 0.0768455 2.08107e-19)
(0.304176 0.0413103 -4.93902e-19)
(0.0707444 0.00957151 3.099e-19)
(0.535806 0.110982 -3.67306e-19)
(1.09413 0.218842 1.46692e-19)
(1.28035 0.274465 2.37384e-20)
(1.30628 0.288604 0)
(1.28009 0.301007 1.72954e-20)
(1.23479 0.30509 -1.85781e-20)
(1.18681 0.305877 -4.86886e-21)
(1.13562 0.303599 0)
(1.0816 0.295647 4.01211e-20)
(1.02539 0.280694 -4.3409e-20)
(0.972529 0.258672 1.04412e-19)
(0.930098 0.235377 0)
(0.897039 0.215144 -9.00009e-20)
(0.869997 0.197284 4.95206e-20)
(0.846451 0.180942 1.34812e-19)
(0.812282 0.165102 -1.18649e-19)
(0.731917 0.142097 1.95927e-19)
(0.563243 0.105214 -4.35036e-19)
(0.316963 0.0597641 2.75993e-19)
(0.0829929 0.0161762 -3.45993e-19)
(0.519646 0.135122 2.27445e-19)
(1.09716 0.273764 -1.67635e-19)
(1.29027 0.341631 7.42105e-20)
(1.31545 0.354059 -1.01646e-19)
(1.28569 0.363369 6.81802e-20)
(1.23717 0.363052 -1.11164e-20)
(1.18528 0.359961 3.66275e-21)
(1.12978 0.353705 -2.63366e-20)
(1.07133 0.341791 -4.00893e-20)
(1.01041 0.323159 -9.34683e-20)
(0.953817 0.298566 -2.25453e-19)
(0.909033 0.274512 -7.59949e-20)
(0.875013 0.252638 2.64534e-21)
(0.848547 0.233913 -1.78964e-19)
(0.8225 0.216772 -6.34418e-21)
(0.787059 0.198704 1.74508e-19)
(0.711875 0.174066 -5.42796e-20)
(0.557748 0.133378 -3.16487e-20)
(0.326591 0.0792238 0)
(0.0916128 0.0228781 7.43261e-19)
(0.500353 0.156352 0)
(1.08845 0.324116 5.2122e-20)
(1.29204 0.405718 0)
(1.31844 0.418063 -1.22595e-20)
(1.28618 0.425206 -8.31025e-20)
(1.23521 0.420858 1.72467e-20)
(1.18031 0.414076 1.65481e-21)
(1.12156 0.403887 4.74123e-20)
(1.05964 0.388103 -2.41747e-20)
(0.994845 0.365452 4.08089e-20)
(0.934077 0.337403 1.21694e-19)
(0.884535 0.308776 1.68407e-19)
(0.846756 0.284775 -1.05374e-19)
(0.817051 0.264933 1.94424e-19)
(0.794736 0.248131 -1.56232e-19)
(0.765298 0.232224 0)
(0.698698 0.207211 -4.1595e-19)
(0.555394 0.162048 5.59166e-19)
(0.332814 0.098063 4.22787e-20)
(0.096834 0.0291497 -7.89015e-19)
(0.485097 0.177147 -5.43839e-21)
(1.07932 0.373381 -1.37398e-19)
(1.28892 0.467155 -4.12628e-19)
(1.31626 0.479614 2.27371e-19)
(1.2819 0.485109 -4.90758e-20)
(1.22932 0.477334 2.63094e-20)
(1.17227 0.46722 -9.28982e-21)
(1.11091 0.45339 -3.67283e-21)
(1.04569 0.434009 -8.46869e-20)
(0.977132 0.407892 6.4716e-22)
(0.913475 0.376639 -1.33043e-19)
(0.86493 0.346917 -1.798e-19)
(0.830161 0.322692 1.18747e-19)
(0.804047 0.302601 -6.99736e-20)
(0.776806 0.284313 1.70287e-19)
(0.743109 0.263763 0)
(0.678112 0.236746 -2.58245e-19)
(0.543587 0.188443 3.81981e-19)
(0.331737 0.114732 7.31089e-19)
(0.0978865 0.0341929 -8.57986e-19)
(0.469975 0.194856 -6.77748e-19)
(1.0649 0.418123 3.42375e-19)
(1.28188 0.524801 2.6645e-19)
(1.31055 0.538142 -2.4683e-19)
(1.27451 0.542589 1.12241e-20)
(1.22071 0.531776 7.11311e-20)
(1.16193 0.518728 -1.62703e-21)
(1.0985 0.501627 -1.76952e-20)
(1.0309 0.478839 -5.26906e-20)
(0.960234 0.449052 9.186e-20)
(0.89479 0.413396 1.25559e-19)
(0.842697 0.380143 2.81916e-19)
(0.802448 0.351932 0)
(0.770312 0.327934 5.59551e-21)
(0.749451 0.308689 -4.74049e-19)
(0.723745 0.293354 1.08957e-19)
(0.666191 0.26519 5.55602e-19)
(0.535492 0.212356 -1.63224e-19)
(0.32362 0.129428 3.46632e-19)
(0.095597 0.0371729 -2.89402e-20)
(0.460702 0.213866 6.17626e-21)
(1.05317 0.462153 3.17381e-19)
(1.27263 0.580055 2.02647e-19)
(1.30189 0.593987 -4.41361e-19)
(1.26428 0.597144 2.8045e-19)
(1.20975 0.583673 -8.80869e-20)
(1.1497 0.568141 -1.72561e-21)
(1.08468 0.548165 3.73196e-20)
(1.01504 0.522305 9.24608e-20)
(0.941797 0.489224 -1.18699e-19)
(0.873872 0.450922 0)
(0.820931 0.414855 -1.11425e-19)
(0.78445 0.38529 1.27925e-19)
(0.759154 0.362515 1.72509e-19)
(0.732245 0.343591 -9.89379e-20)
(0.700945 0.319513 -2.50205e-19)
(0.642457 0.289881 -7.60125e-20)
(0.518495 0.230531 -1.21139e-21)
(0.312631 0.139235 0)
(0.0908787 0.0397748 0)
(0.451966 0.229308 -3.35914e-19)
(1.03952 0.502475 0)
(1.26132 0.631697 2.32407e-19)
(1.29135 0.646908 -1.07111e-19)
(1.25255 0.648968 -2.91454e-19)
(1.19747 0.632928 8.04494e-20)
(1.13635 0.615234 -7.81434e-21)
(1.07001 0.592705 -1.67278e-20)
(0.998723 0.564129 5.75892e-20)
(0.923314 0.527847 -4.92033e-20)
(0.85287 0.485326 7.05614e-20)
(0.798463 0.444962 3.48022e-19)
(0.758178 0.413034 1.34925e-20)
(0.724406 0.385842 -1.7606e-19)
(0.703475 0.362221 3.40539e-19)
(0.680845 0.344346 4.50688e-21)
(0.628614 0.310517 8.13247e-20)
(0.504582 0.248273 -3.94643e-19)
(0.300288 0.146781 3.99938e-19)
(0.0851014 0.0414213 -4.77883e-19)
(0.445508 0.248412 3.40381e-23)
(1.02766 0.541908 0)
(1.24923 0.680839 0)
(1.27937 0.697116 9.99062e-20)
(1.23954 0.697869 1.14397e-19)
(1.1841 0.67947 -6.65332e-20)
(1.12208 0.659903 4.17296e-20)
(1.05466 0.635177 0)
(0.98175 0.604311 -9.44089e-20)
(0.904251 0.565405 1.73627e-19)
(0.831791 0.520032 2.15804e-19)
(0.775656 0.477548 -1.31295e-19)
(0.735292 0.441574 -1.64916e-19)
(0.711705 0.413489 3.90082e-19)
(0.686261 0.390489 -1.20466e-19)
(0.656807 0.364122 -1.46334e-19)
(0.602207 0.329543 -8.95286e-20)
(0.483496 0.259998 -4.28079e-19)
(0.286251 0.15216 6.04056e-20)
(0.0786793 0.041937 5.19259e-19)
(0.44175 0.267204 -1.34424e-19)
(1.01589 0.578388 -2.12472e-19)
(1.23631 0.726515 2.36306e-20)
(1.2667 0.74446 4.54691e-23)
(1.22612 0.744193 3.7086e-20)
(1.17034 0.723558 -1.78514e-19)
(1.10748 0.702218 0)
(1.03902 0.675518 1.42483e-20)
(0.964563 0.642515 -1.1235e-20)
(0.884963 0.6009 2.74044e-19)
(0.809509 0.552323 -5.41593e-20)
(0.750819 0.505705 6.01438e-20)
(0.710773 0.467268 0)
(0.67602 0.434542 -2.13003e-19)
(0.656606 0.40716 2.65623e-19)
(0.635638 0.385001 0)
(0.585548 0.343235 -1.95847e-19)
(0.46521 0.27166 5.72903e-19)
(0.271079 0.155605 6.80877e-20)
(0.071866 0.0414739 -6.43219e-19)
(0.439773 0.284209 -2.98654e-19)
(1.00589 0.613739 3.8327e-19)
(1.22345 0.769749 0)
(1.25359 0.789109 2.4894e-19)
(1.21234 0.787849 0)
(1.1563 0.765222 1.6678e-19)
(1.09265 0.742279 0)
(1.02323 0.713831 0)
(0.947352 0.679126 -3.31205e-20)
(0.865473 0.636004 -2.67273e-19)
(0.787492 0.585496 -4.01539e-19)
(0.727488 0.535481 7.61664e-20)
(0.685159 0.492715 2.85176e-19)
(0.66156 0.45924 2.39755e-19)
(0.637003 0.431206 -8.52397e-19)
(0.60906 0.398108 -3.5232e-19)
(0.55672 0.358908 2.04845e-19)
(0.440893 0.277708 0)
(0.254382 0.156947 5.89563e-19)
(0.0645273 0.0400216 -6.97748e-19)
(0.438335 0.299964 3.29513e-19)
(0.995633 0.646149 -4.21423e-19)
(1.21038 0.809635 0)
(1.24034 0.830832 -1.02825e-20)
(1.19857 0.828984 -1.02299e-19)
(1.14234 0.804673 0)
(1.07806 0.780252 -1.34065e-20)
(1.00782 0.750161 2.05548e-20)
(0.930617 0.713924 -4.13374e-20)
(0.847233 0.668563 2.62351e-20)
(0.767794 0.613809 0)
(0.705149 0.561422 3.04483e-19)
(0.660623 0.516607 4.04881e-21)
(0.624464 0.476057 1.30254e-19)
(0.605417 0.441097 1.5703e-19)
(0.586554 0.415672 0)
(0.538108 0.364905 -3.45373e-19)
(0.420579 0.283269 6.77128e-19)
(0.237174 0.156099 -7.20282e-19)
(0.0573815 0.0376734 1.51399e-18)
(0.437161 0.314924 0)
(0.986655 0.677812 0)
(1.1978 0.84739 -2.31824e-19)
(1.22711 0.869981 0)
(1.18484 0.867491 0)
(1.1285 0.841783 2.40623e-19)
(1.06371 0.816143 -1.71161e-20)
(0.99269 0.784623 1.70407e-20)
(0.914141 0.747106 -2.72079e-21)
(0.828008 0.700623 0)
(0.743396 0.64677 -6.4612e-20)
(0.677619 0.591668 -2.52396e-19)
(0.632555 0.539077 -3.16988e-19)
(0.608222 0.497877 -1.3172e-19)
(0.585094 0.463121 1.72824e-19)
(0.557927 0.422402 -4.10451e-19)
(0.507344 0.376152 7.47417e-19)
(0.393653 0.283885 6.35151e-21)
(0.219369 0.153123 -6.96583e-19)
(0.0503686 0.034815 -1.0331e-19)
(0.435874 0.329513 0)
(0.977466 0.707036 -3.28865e-19)
(1.18525 0.882239 2.58667e-19)
(1.21401 0.906437 0)
(1.17134 0.903553 0)
(1.11497 0.876723 -5.32281e-19)
(1.04983 0.850058 0)
(0.978219 0.817395 0)
(0.898617 0.778834 -6.97592e-20)
(0.811544 0.731717 5.11482e-20)
(0.727726 0.674515 -5.15405e-19)
(0.659086 0.61457 0)
(0.608141 0.563799 -3.44984e-19)
(0.567969 0.513961 1.14899e-20)
(0.548812 0.468796 -5.53031e-19)
(0.532586 0.434557 2.22442e-19)
(0.487253 0.37265 3.51467e-21)
(0.374723 0.281977 -7.97209e-19)
(0.203321 0.148821 3.78245e-19)
(0.0450464 0.0319758 1.10529e-19)
(0.434664 0.343648 0)
(0.969453 0.73567 -3.88037e-19)
(1.17333 0.915426 2.75493e-19)
(1.20123 0.940696 5.78042e-19)
(1.15815 0.937201 1.16793e-19)
(1.10181 0.909383 -8.10206e-20)
(1.03647 0.881951 5.00482e-20)
(0.964492 0.84828 -9.01374e-20)
(0.88406 0.808856 7.46224e-20)
(0.794986 0.760553 3.12529e-19)
(0.704465 0.702849 4.27433e-19)
(0.629831 0.643612 8.23892e-20)
(0.57708 0.584891 5.00761e-19)
(0.549014 0.533909 3.25381e-19)
(0.52517 0.488647 3.99355e-19)
(0.500536 0.431795 -2.49199e-19)
(0.454102 0.376953 -2.94414e-19)
(0.347325 0.27465 3.45911e-19)
(0.186117 0.139798 -2.04425e-19)
(0.0414956 0.0315542 3.60875e-19)
(0.433371 0.357314 5.10542e-19)
(0.96125 0.761881 6.16315e-19)
(1.16148 0.94601 1.51418e-19)
(1.18871 0.97255 1.61618e-20)
(1.14535 0.968631 -4.06041e-19)
(1.08912 0.940001 1.54229e-19)
(1.02365 0.911876 -5.7321e-20)
(0.951275 0.877448 -2.15033e-20)
(0.869801 0.837596 -6.54421e-20)
(0.778289 0.789111 -3.49353e-19)
(0.686267 0.731666 2.55819e-20)
(0.610459 0.669353 0)
(0.553995 0.611358 0)
(0.505322 0.551912 -1.6547e-19)
(0.481808 0.489901 -6.58075e-19)
(0.467643 0.439949 5.40752e-19)
(0.432532 0.354274 3.29991e-19)
(0.34128 0.253978 0)
(0.191203 0.118635 6.52562e-19)
(0.0360581 0.0116431 -3.90105e-19)
(0.432217 0.370248 -2.728e-19)
(0.95404 0.787467 2.36043e-19)
(1.15032 0.975267 -3.37647e-19)
(1.17668 1.00258 -3.63556e-19)
(1.13304 0.997971 -1.60425e-19)
(1.07691 0.968515 3.69595e-20)
(1.01136 0.939875 0)
(0.938808 0.904914 1.32313e-19)
(0.856622 0.864424 1.16671e-20)
(0.764302 0.815606 0)
(0.670643 0.757286 0)
(0.588216 0.697211 5.76347e-20)
(0.52002 0.634603 8.82286e-20)
(0.484015 0.5717 -1.78663e-19)
(0.453115 0.51275 4.75773e-19)
(0.425176 0.429766 -5.95618e-19)
(0.387714 0.345264 -7.0834e-19)
(0.322322 0.229597 6.27268e-19)
(0.22078 0.137461 -2.35139e-19)
(0.121611 0.091716 1.34914e-19)
(0.430818 0.382406 3.14978e-19)
(0.946487 0.81056 0)
(1.13922 1.00199 0)
(1.16499 1.03038 -1.22392e-19)
(1.12119 1.02535 9.9069e-20)
(1.06523 0.995222 -2.07615e-20)
(0.999676 0.966076 -2.17616e-19)
(0.926823 0.930529 -2.10009e-19)
(0.843851 0.889991 6.80023e-20)
(0.749681 0.841483 -2.83344e-20)
(0.651126 0.78482 6.81996e-20)
(0.563567 0.722341 -4.75075e-19)
(0.500991 0.659597 -5.22932e-19)
(0.436539 0.595272 -9.5394e-20)
(0.397386 0.514564 0)
(0.373524 0.441495 -1.24806e-20)
(0.346746 0.293806 3.91327e-19)
(0.303182 0.132116 -6.5705e-19)
(0.26386 -0.0254798 4.87725e-19)
(0.0807573 -0.0879066 3.8978e-19)
(0.429522 0.393945 -6.86563e-19)
(0.93978 0.833239 -2.96791e-19)
(1.12878 1.02781 6.46052e-21)
(1.15374 1.05686 1.56093e-19)
(1.10973 1.05122 0)
(1.05387 1.02043 4.61132e-19)
(0.988202 0.990946 2.70483e-19)
(0.915197 0.955229 -4.48801e-20)
(0.831876 0.914743 -2.14677e-20)
(0.736738 0.866225 -2.66799e-20)
(0.637603 0.809477 2.47807e-20)
(0.5498 0.751112 4.19981e-19)
(0.465296 0.689462 5.11069e-19)
(0.414201 0.618336 9.20293e-20)
(0.366053 0.550828 5.08685e-19)
(0.306932 0.433336 0)
(0.20876 0.290712 0)
(0.0449507 0.279994 4.8523e-19)
(-0.0668014 0.629867 -3.34698e-20)
(0.000649009 1.50239 -6.23331e-19)
(0.427833 0.404875 3.73819e-19)
(0.932697 0.853644 8.90341e-19)
(1.11831 1.05139 -1.33951e-18)
(1.14271 1.08158 8.06977e-19)
(1.09858 1.07581 -9.39775e-20)
(1.04284 1.04471 6.02719e-19)
(0.977209 1.01511 0)
(0.904126 0.979315 2.1958e-19)
(0.820015 0.939015 0)
(0.723056 0.891671 2.5369e-19)
(0.619849 0.837119 -3.89487e-20)
(0.521706 0.778782 4.36711e-20)
(0.449176 0.718986 5.67832e-19)
(0.362204 0.659354 -2.09248e-19)
(0.277944 0.568668 -2.66127e-19)
(0.209367 0.497037 0)
(0.108395 0.584377 0)
(0.0385702 1.25077 0)
(0.0788765 2.42733 -2.7286e-19)
(0.109657 2.89325 -1.69405e-19)
(0.426218 0.415359 0)
(0.926472 0.873832 0)
(1.10855 1.07442 4.79431e-19)
(1.13216 1.10531 -6.726e-19)
(1.08781 1.09921 4.6104e-19)
(1.03222 1.0678 -5.52212e-19)
(0.966518 1.03823 -3.11995e-20)
(0.893201 1.00265 2.4292e-20)
(0.808866 0.963398 6.74244e-21)
(0.711537 0.917018 -2.88457e-19)
(0.606849 0.864887 5.94827e-20)
(0.512629 0.811517 3.95633e-19)
(0.411679 0.757993 -5.59552e-19)
(0.340703 0.686762 -6.56455e-19)
(0.274285 0.633752 2.29292e-19)
(0.208436 0.752115 0)
(0.144872 1.49163 3.31001e-19)
(0.143382 2.6689 3.68465e-19)
(0.149058 3.07965 -4.12369e-19)
(0.13979 3.21855 4.53199e-19)
(0.424237 0.425042 0)
(0.919817 0.891642 7.24137e-19)
(1.09876 1.09515 -1.24252e-19)
(1.1219 1.12724 8.47221e-19)
(1.07747 1.12128 -4.83933e-19)
(1.02201 1.08995 0)
(0.95637 1.06061 0)
(0.883206 1.02547 0)
(0.798414 0.986615 -7.22585e-20)
(0.699256 0.941813 2.91088e-21)
(0.591939 0.890908 0)
(0.485622 0.83946 -3.86122e-19)
(0.405775 0.791034 0)
(0.29593 0.744323 4.67079e-19)
(0.217075 0.822037 -3.04508e-19)
(0.172104 1.44169 -2.5547e-19)
(0.179389 2.65932 -6.27183e-19)
(0.198427 3.12554 -3.13676e-19)
(0.188357 3.27199 -3.62624e-19)
(0.17312 3.31316 3.10306e-19)
(0.422443 0.434104 -2.44631e-19)
(0.914044 0.909468 1.5108e-20)
(1.08972 1.11566 -1.33925e-19)
(1.11214 1.14845 -6.77915e-19)
(1.0675 1.14239 0)
(1.01223 1.11102 0)
(0.946644 1.08203 0)
(0.873303 1.04735 -1.5146e-20)
(0.788339 1.0101 8.17389e-20)
(0.689389 0.967803 0)
(0.580873 0.92169 0)
(0.481141 0.877948 0)
(0.36872 0.835442 0)
(0.30748 0.829655 3.07679e-19)
(0.287029 1.18184 8.03535e-19)
(0.276124 2.3322 2.50609e-19)
(0.287062 3.08023 4.5797e-19)
(0.279019 3.29168 -2.94917e-19)
(0.22817 3.3602 1.08693e-19)
(0.193837 3.37289 0)
(0.420292 0.44264 2.47993e-19)
(0.907547 0.925283 -1.56244e-18)
(1.08036 1.13435 -4.42897e-19)
(1.10245 1.16843 -1.0809e-19)
(1.05777 1.16272 1.2347e-19)
(1.00266 1.13168 -8.69804e-19)
(0.937118 1.10315 5.88127e-20)
(0.864028 1.06927 3.9982e-19)
(0.778987 1.03284 0)
(0.67868 0.991494 -1.64583e-20)
(0.568871 0.946112 1.49719e-20)
(0.459373 0.903193 0)
(0.378598 0.876363 0)
(0.330503 1.00076 -3.81704e-19)
(0.296505 1.82967 1.37484e-21)
(0.293644 2.92665 -1.3602e-19)
(0.311719 3.29595 2.27472e-19)
(0.284836 3.39943 8.89802e-20)
(0.21664 3.42557 5.56497e-20)
(0.190369 3.43413 -2.99523e-20)
(0.418088 0.451178 4.77932e-19)
(0.901425 0.942934 1.49492e-18)
(1.07101 1.15484 5.4447e-19)
(1.09244 1.18953 0)
(1.04762 1.1837 0)
(0.992816 1.15261 6.66403e-19)
(0.92753 1.12447 -4.10374e-19)
(0.854554 1.0911 -3.67764e-19)
(0.769628 1.0562 -1.45142e-20)
(0.669841 1.01889 4.77049e-20)
(0.559194 0.981306 -2.83315e-19)
(0.451668 0.945926 0)
(0.373524 0.951848 0)
(0.348011 1.3427 -2.13444e-19)
(0.360633 2.43614 -2.78619e-19)
(0.402641 3.19875 0)
(0.428773 3.38488 3.02608e-20)
(0.358815 3.45051 2.04099e-19)
(0.283245 3.49517 -4.2162e-19)
(0.25815 3.52128 2.50559e-19)
(0.414947 0.460158 -9.05457e-19)
(0.893585 0.959528 -7.11319e-19)
(1.06025 1.17466 0)
(1.08156 1.21068 0)
(1.03688 1.20516 0)
(0.98235 1.17429 0)
(0.917226 1.14646 4.38198e-19)
(0.8447 1.11381 -4.77051e-19)
(0.760114 1.08005 0)
(0.660395 1.04317 -3.76456e-20)
(0.552363 1.00343 4.67392e-19)
(0.449748 0.974774 2.41607e-20)
(0.40002 1.06831 4.11769e-20)
(0.407314 1.71643 3.15503e-19)
(0.431171 2.87554 -9.81935e-20)
(0.466985 3.33027 0)
(0.449092 3.46218 -5.69507e-20)
(0.35847 3.55145 1.00248e-19)
(0.27333 3.62173 3.37909e-19)
(0.19692 3.60218 -2.91055e-19)
(0.411828 0.469205 4.29382e-19)
(0.886032 0.97925 -6.99647e-19)
(1.0492 1.19748 0)
(1.06989 1.23376 -1.73578e-19)
(1.02517 1.22784 6.58786e-19)
(0.971157 1.19661 0)
(0.906666 1.16896 0)
(0.834805 1.13667 8.92955e-19)
(0.751086 1.10398 1.40576e-20)
(0.652385 1.07096 -7.16732e-20)
(0.538628 1.04239 -1.98283e-19)
(0.449117 1.03315 1.54807e-19)
(0.412121 1.23141 0)
(0.448923 2.13274 -1.48537e-19)
(0.49811 3.13498 1.23969e-19)
(0.558386 3.43808 -3.13171e-20)
(0.552366 3.54308 0)
(0.482231 3.6392 -1.884e-19)
(0.405561 3.68464 -7.45211e-19)