/*--------------------------------*- C++ -*----------------------------------*\
| =========                 |                                                 |
| \\      /  F ield         | OpenFOAM: The Open Source CFD Toolbox           |
|  \\    /   O peration     | Version:  v2012                                 |
|   \\  /    A nd           | Website:  www.openfoam.com                      |
|    \\/     M anipulation  |                                                 |
\*---------------------------------------------------------------------------*/
FoamFile
{
    version     2.0;
    format      ascii;
    class       surfaceScalarField;
    location    "46";
    object      phi;
}
// * * * * * * * * * * * * * * * * * * * * * * * * * * * * * * * * * * * * * //

dimensions      [0 3 -1 0 0 0 0];
oriented        oriented;


internalField   nonuniform List<scalar> 
4262
(
0.107139
0.47085
0.0955767
0.705148
0.0693947
0.858485
0.0473784
1.02078
0.0309996
1.2149
0.0198059
1.44941
0.0124371
1.73323
0.00728202
2.07619
0.00338095
2.48914
-0.000191713
2.98586
-0.00376382
2.98586
-0.00765579
2.48914
-0.0127786
2.07616
-0.0200769
1.73316
-0.0311035
1.44925
-0.0472232
1.21464
-0.0690188
1.02056
-0.0952657
0.85855
-0.107083
0.705403
0.470905
0.112888
0.357962
0.135303
0.682733
0.120408
0.87338
0.097874
1.04331
0.0746549
1.23811
0.0529334
1.47113
0.034482
1.75168
0.020202
2.09047
0.00884615
2.5005
-0.00134662
2.99606
-0.0114989
2.99602
-0.0226212
2.50026
-0.0366473
2.09019
-0.0547241
1.75124
-0.0763696
1.47089
-0.0999838
1.23825
-0.12303
1.04361
-0.136795
0.872314
-0.113494
0.682102
0.357412
0.0920908
0.265871
0.125063
0.649761
0.121229
0.877214
0.10497
1.05957
0.0863347
1.25675
0.0672573
1.49021
0.0483813
1.77056
0.0303822
2.10847
0.0139196
2.51696
-0.00194576
3.01192
-0.0176804
3.01175
-0.0338892
2.51647
-0.0514565
2.10775
-0.0700019
1.76978
-0.0884864
1.48938
-0.105879
1.25564
-0.120244
1.05797
-0.125335
0.877405
-0.0923695
0.649137
0.265042
0.064012
0.201859
0.104876
0.608897
0.106679
0.875412
0.0953035
1.07095
0.0813705
1.27068
0.0666208
1.50496
0.0505452
1.78664
0.0334402
2.12558
0.0157078
2.5347
-0.00305333
3.03068
-0.0215025
3.0302
-0.0386216
2.53359
-0.0550258
2.12416
-0.0703192
1.78508
-0.0841977
1.50325
-0.0978752
1.26932
-0.109614
1.06971
-0.10675
0.874541
-0.0647779
0.607164
0.200264
0.0375236
0.164335
0.080857
0.565563
0.0912381
0.865031
0.0841245
1.07806
0.0715367
1.28327
0.0596521
1.51685
0.0466637
1.79962
0.0318075
2.14043
0.015052
2.55145
-0.00393458
3.04967
-0.0226772
3.04894
-0.038746
2.54965
-0.0527347
2.13815
-0.0649774
1.79732
-0.076428
1.51471
-0.0884543
1.28135
-0.0948136
1.07607
-0.0830586
0.862786
-0.0383241
0.56243
0.16194
0.0195183
0.144817
0.0573501
0.527731
0.0727619
0.849619
0.0706936
1.08013
0.0620197
1.29194
0.0512621
1.5276
0.0400549
1.81083
0.0274219
2.15306
0.0123177
2.56656
-0.00535275
3.06734
-0.0225588
3.06615
-0.0367299
2.56383
-0.0483699
2.14979
-0.0585287
1.80748
-0.0682838
1.52446
-0.0759151
1.28898
-0.0768029
1.07696
-0.0598207
0.845804
-0.0203302
0.522939
0.14161
0.0106737
0.134143
0.0425324
0.495873
0.058831
0.83332
0.0592407
1.07972
0.0531518
1.29803
0.0438706
1.53689
0.0335659
1.82114
0.0222386
2.16439
0.00917415
2.57962
-0.0066247
3.08314
-0.022079
3.0816
-0.0341903
2.57594
-0.0441173
2.15971
-0.0529801
1.81634
-0.0609884
1.53247
-0.0656718
1.29366
-0.0638081
1.07509
-0.0455906
0.827586
-0.0116128
0.488962
0.129997
0.00662477
0.127518
0.0330824
0.469415
0.0494015
0.817001
0.050996
1.07812
0.0460344
1.303
0.0377859
1.54513
0.0282582
1.83066
0.0174465
2.1752
0.00538282
2.59168
-0.00849664
3.09702
-0.0218149
3.09492
-0.0325231
2.58665
-0.0417966
2.16899
-0.0495289
1.82407
-0.0560594
1.539
-0.0592984
1.2969
-0.0558244
1.07162
-0.0369256
0.808688
-0.00779157
0.459828
0.122205
0.00474958
0.122769
0.0267387
0.447426
0.042675
0.801065
0.0448462
1.07595
0.0402805
1.30756
0.0327611
1.55265
0.0238911
1.83953
0.0136316
2.18546
0.00214032
2.60317
-0.0105793
3.10974
-0.0224828
3.10683
-0.032372
2.59653
-0.0405793
2.17719
-0.0474674
1.83096
-0.0530904
1.54462
-0.0556486
1.29946
-0.0508809
1.06685
-0.0315242
0.789331
-0.00622616
0.43453
0.115979
0.00385376
0.118915
0.0220364
0.429243
0.0374864
0.785615
0.0404193
1.07302
0.0360967
1.31188
0.0287242
1.56003
0.0200293
1.84823
0.0101649
2.19533
-0.000844261
2.61418
-0.0129376
3.12183
-0.0242996
3.11819
-0.0334092
2.60564
-0.0408627
2.18465
-0.0469547
1.83705
-0.0518068
1.54947
-0.0532755
1.30093
-0.0471522
1.06073
-0.0276517
0.76983
-0.00558101
0.412459
0.110398
0.00310594
0.115809
0.0176672
0.414682
0.0317391
0.771543
0.0349653
1.06979
0.0311817
1.31567
0.0243954
1.56681
0.0161582
1.85647
0.006461
2.20502
-0.00465312
2.6253
-0.0166331
3.13381
-0.0272842
3.12884
-0.0355741
2.61393
-0.0422423
2.19131
-0.0475962
1.84241
-0.0514093
1.55329
-0.0517519
1.30127
-0.0442983
1.05327
-0.0247469
0.750279
-0.00526526
0.392977
0.105133
0.0024089
0.1134
0.0140467
0.403044
0.0269084
0.758681
0.0302888
1.06641
0.0265779
1.31938
0.019888
1.5735
0.0117566
1.8646
0.00238025
2.2144
-0.00809013
2.63577
-0.0196091
3.14533
-0.0301685
3.1394
-0.0382026
2.62197
-0.0439248
2.19704
-0.0482327
1.84672
-0.0510551
1.55611
-0.0505296
1.30074
-0.0418216
1.04457
-0.0224704
0.730928
-0.00504249
0.375549
0.100091
0.00172126
0.111679
0.0105765
0.394189
0.0215598
0.747698
0.0245327
1.06344
0.0208951
1.32302
0.0143054
1.58009
0.00618679
1.87272
-0.0031162
2.2237
-0.0138055
2.64646
-0.0252954
3.15682
-0.0348281
3.14893
-0.0413601
2.6285
-0.0461076
2.20178
-0.0496059
1.85021
-0.0512968
1.5578
-0.0499089
1.29936
-0.0401889
1.03485
-0.0209008
0.71164
-0.00488458
0.359533
0.095206
0.000933848
0.110745
0.007299
0.387824
0.0166086
0.738388
0.0189608
1.06109
0.0147569
1.32722
0.00778491
1.58706
-0.000410831
1.88091
-0.0096822
2.23298
-0.0195385
2.65631
-0.0297288
3.16701
-0.0383633
3.15756
-0.0442468
2.63438
-0.0480265
2.20556
-0.0508844
1.85307
-0.0520646
1.55898
-0.0499638
1.29726
-0.0391327
1.02402
-0.0198158
0.692323
-0.00480339
0.344521
0.0904026
0.000158748
0.110586
0.00412464
0.383858
0.0109489
0.731564
0.0123159
1.05972
0.00784673
1.33169
0.000557797
1.59435
-0.0080565
1.88953
-0.0172915
2.24221
-0.0273591
2.66638
-0.0379083
3.17756
-0.0456439
3.1653
-0.0497531
2.63849
-0.0523342
2.20815
-0.0541729
1.85491
-0.0542359
1.55904
-0.0507102
1.29373
-0.0387098
1.01201
-0.0192026
0.672816
-0.00478635
0.330104
0.0856163
-0.000790778
0.111377
0.000528889
0.382538
0.00549529
0.726598
0.00610386
1.05911
0.000961165
1.33683
-0.00708737
1.6024
-0.0163156
1.89875
-0.026175
2.25207
-0.036067
2.67627
-0.0452282
3.18672
-0.0519265
3.172
-0.0554955
2.64206
-0.0572021
2.20985
-0.0582398
1.85595
-0.0574643
1.55827
-0.0525453
1.28881
-0.0388497
0.998319
-0.0189415
0.652907
-0.0048148
0.315978
0.0808015
-0.00163695
0.113014
-0.00260125
0.383503
-0.000799523
0.724796
-0.00202799
1.06034
-0.00773752
1.34254
-0.0160844
1.61075
-0.0258851
1.90855
-0.0363565
2.26254
-0.0469973
2.68691
-0.0566123
3.19634
-0.0625876
3.17797
-0.0648232
2.6443
-0.0652947
2.21032
-0.0643929
1.85505
-0.0617818
1.55566
-0.0551947
1.28222
-0.0399835
0.983108
-0.019437
0.632361
-0.00508248
0.301623
0.075719
-0.00296462
0.115979
-0.00630624
0.386844
-0.00793319
0.726423
-0.0105649
1.06297
-0.0172348
1.34921
-0.0266435
1.62016
-0.0372393
1.91915
-0.0485374
2.27384
-0.0594274
2.6978
-0.0679899
3.2049
-0.0722322
3.18222
-0.0732903
2.64536
-0.0722869
2.20932
-0.0708415
1.8536
-0.0673099
1.55213
-0.0586614
1.27358
-0.0416019
0.966049
-0.0201728
0.610932
-0.00536318
0.286814
0.0703558
-0.00436143
0.12034
-0.0107461
0.393229
-0.0158936
0.73157
-0.0218606
1.06894
-0.0296898
1.35704
-0.0397104
1.63018
-0.0511615
1.9306
-0.0633218
2.286
-0.0750462
2.70953
-0.0843705
3.21422
-0.0886417
3.18649
-0.0886286
2.64534
-0.0856955
2.20639
-0.0810261
1.84893
-0.0746002
1.5457
-0.0637162
1.26269
-0.0444735
0.946806
-0.0215923
0.588051
-0.00584202
0.271063
0.0645138
-0.00575877
0.126099
-0.0156563
0.403126
-0.0247392
0.740653
-0.033012
1.07721
-0.0430026
1.36703
-0.055435
1.64261
-0.0686359
1.9438
-0.0819554
2.29932
-0.0938645
2.72144
-0.101754
3.22211
-0.102782
3.18752
-0.0996125
2.64217
-0.094887
2.20166
-0.0899872
1.84403
-0.0829028
1.53862
-0.0695788
1.24937
-0.0476644
0.924891
-0.023105
0.563491
-0.00629605
0.254254
0.0582177
-0.00817993
0.134279
-0.0230607
0.418007
-0.0380165
0.755609
-0.0501194
1.08932
-0.061757
1.37867
-0.0756263
1.65648
-0.0906856
1.95886
-0.105547
2.31418
-0.117923
2.73381
-0.125091
3.22928
-0.125049
3.18747
-0.120685
2.63781
-0.114098
2.19507
-0.105098
1.83503
-0.093771
1.52729
-0.0770517
1.23265
-0.0520125
0.899852
-0.025267
0.536746
-0.00689058
0.235878
0.0513271
-0.0107259
0.145005
-0.0306059
0.437887
-0.0513744
0.776377
-0.0680386
1.10598
-0.0832364
1.39387
-0.10041
1.67365
-0.117586
1.97604
-0.133419
2.33001
-0.145479
2.74587
-0.150828
3.23463
-0.147328
3.18397
-0.138525
2.629
-0.128034
2.18458
-0.118117
1.82511
-0.105839
1.51501
-0.0859105
1.21272
-0.0572561
0.871198
-0.0278338
0.507324
-0.00748582
0.21553
0.0438413
-0.0154206
0.160425
-0.0426951
0.465162
-0.070094
0.803776
-0.0918921
1.12778
-0.110637
1.41261
-0.130758
1.69377
-0.150489
1.99577
-0.168087
2.34761
-0.180665
2.75845
-0.184594
3.23856
-0.17825
3.17763
-0.167084
2.61784
-0.154701
2.1722
-0.140018
1.81043
-0.122166
1.49716
-0.097522
1.18808
-0.0643737
0.83805
-0.031183
0.474133
-0.00815594
0.192503
0.0356854
-0.0195993
0.180024
-0.0556692
0.501232
-0.0924989
0.840606
-0.121263
1.15654
-0.145476
1.43682
-0.170209
1.71851
-0.192337
2.0179
-0.210068
2.36534
-0.220662
2.76905
-0.221086
3.23898
-0.210968
3.16751
-0.195447
2.60232
-0.178072
2.15482
-0.161131
1.79349
-0.141203
1.47723
-0.111725
1.1586
-0.0728338
0.799158
-0.0347512
0.43605
-0.00874565
0.166497
0.0269397
-0.0326558
0.21268
-0.0817384
0.550314
-0.12837
0.887237
-0.163896
1.19207
-0.194
1.46693
-0.222183
1.74669
-0.245361
2.04107
-0.262677
2.38266
-0.271436
2.7778
-0.267517
3.23507
-0.251206
3.1512
-0.231221
2.58233
-0.211612
2.13521
-0.190328
1.77221
-0.163592
1.4505
-0.127434
1.12244
-0.082146
0.75387
-0.0384793
0.392384
-0.00915568
0.137174
0.017784
-0.0473086
0.259989
-0.120847
0.623853
-0.183144
0.949535
-0.226624
1.23555
-0.262005
1.50231
-0.291113
1.7758
-0.312348
2.06231
-0.325546
2.39586
-0.327477
2.77974
-0.31568
3.22327
-0.294003
3.12952
-0.269457
2.55779
-0.24367
2.10943
-0.21795
1.74649
-0.187396
1.41994
-0.144158
1.0792
-0.0904997
0.700212
-0.0402189
0.342103
-0.00902455
0.105979
0.0087595
-0.0339549
0.293944
-0.0967328
0.686631
-0.153798
1.0066
-0.200245
1.282
-0.242517
1.54458
-0.279391
1.81267
-0.313345
2.09626
-0.343061
2.42557
-0.364511
2.80118
-0.372789
3.23155
-0.361183
3.11792
-0.338662
2.53527
-0.312418
2.08318
-0.27842
1.71249
-0.232247
1.37377
-0.170727
1.01768
-0.0990348
0.628519
-0.0391928
0.282261
-0.00865242
0.0754389
0.000107081
-0.0126279
0.306572
-0.0473162
0.721319
-0.0886131
1.0479
-0.127268
1.32065
-0.165066
1.58238
-0.198255
1.84586
-0.228839
2.12685
-0.254097
2.45083
-0.269767
2.81685
-0.268547
3.23033
-0.251197
3.10057
-0.225494
2.50956
-0.193209
2.0509
-0.158893
1.67817
-0.121511
1.33639
-0.0779377
0.974109
-0.0360119
0.586593
-0.0110302
0.257279
-0.00227265
0.0666813
-0.00216557
0.00039688
0.306175
-0.0239125
0.745628
-0.0531642
1.07715
-0.0830217
1.35051
-0.113789
1.61315
-0.143824
1.87589
-0.171157
2.15418
-0.19323
2.4729
-0.206251
2.82988
-0.205015
3.22909
-0.185926
3.08148
-0.155675
2.47931
-0.123933
2.01916
-0.0906753
1.64491
-0.0534196
1.29913
-0.0175959
0.938285
0.00440731
0.56459
0.00696255
0.254724
0.00222381
0.07142
5.82409e-05
0.000951185
0.305224
-0.0124198
0.758999
-0.0339877
1.09872
-0.0586098
1.37513
-0.0841883
1.63873
-0.109266
1.90097
-0.132604
2.17752
-0.151144
2.49144
-0.16019
2.83892
-0.154859
3.22376
-0.134188
3.06081
-0.107714
2.45284
-0.0769265
1.98837
-0.0421408
1.61013
-0.0128792
1.26987
0.00867067
0.916735
0.0180772
0.555184
0.0133365
0.259465
0.00419372
0.0805628
0.00425196
0.00398781
0.301236
-0.00536872
0.768356
-0.0236741
1.11702
-0.0444666
1.39592
-0.0661309
1.66039
-0.0876816
1.92252
-0.107897
2.19773
-0.124017
2.50756
-0.132793
2.8477
-0.129027
3.21999
-0.109606
3.04139
-0.0816664
2.4249
-0.0521217
1.95882
-0.0247107
1.58272
0.0036303
1.24153
0.023013
0.897352
0.0258537
0.552343
0.0164067
0.268912
0.00503328
0.0919362
0.00928524
0.00520298
0.296033
-0.000874627
0.774433
-0.0172107
1.13336
-0.03609
1.4148
-0.0555367
1.67984
-0.0745662
1.94155
-0.0925113
2.21568
-0.107179
2.52223
-0.114901
2.85542
-0.10962
3.21471
-0.0924581
3.02423
-0.071946
2.40439
-0.0447084
1.93159
-0.0145718
1.55258
0.00828052
1.21868
0.0232659
0.882367
0.0249681
0.550641
0.0153182
0.278562
0.00475589
0.102498
0.0140411
0.00377568
0.292257
-0.000831979
0.779041
-0.0144352
1.14696
-0.0314784
1.43185
-0.0491316
1.69749
-0.0667874
1.95921
-0.0836696
2.23256
-0.0976456
2.53621
-0.10547
2.86324
-0.103582
3.21282
-0.0903396
3.01098
-0.0669734
2.38102
-0.0416623
1.90628
-0.0181892
1.52911
0.00540802
1.19508
0.0198568
0.867918
0.0203665
0.550131
0.0124985
0.28643
0.00384023
0.111157
0.0178814
0.00258222
0.289675
-0.00116195
0.782785
-0.0136794
1.15948
-0.029284
1.44745
-0.0460312
1.71424
-0.0626046
1.97578
-0.0784603
2.24842
-0.0918507
2.5496
-0.099969
2.87136
-0.0993492
3.21221
-0.0855446
2.99718
-0.0659146
2.36139
-0.0441292
1.88449
-0.0195051
1.50448
0.00053451
1.17504
0.0118657
0.856587
0.0143318
0.547665
0.00839331
0.292368
0.00258006
0.11697
0.0204614
0.000141623
0.289533
-0.00363603
0.786563
-0.0146206
1.17046
-0.0286365
1.46147
-0.0443135
1.72991
-0.0602226
1.99169
-0.0758643
2.26406
-0.0899658
2.5637
-0.0999842
2.88138
-0.10088
3.2131
-0.0895781
2.98588
-0.0710282
2.34284
-0.0489288
1.86239
-0.0284631
1.48402
-0.00896074
1.15554
0.00385343
0.843773
0.00574294
0.545776
0.00399635
0.294115
0.00146041
0.119506
0.0219218
-0.000546341
0.29008
-0.00533644
0.791353
-0.0156336
1.18076
-0.0288502
1.47468
-0.043908
1.74497
-0.0593317
2.00711
-0.0748562
2.27958
-0.0891016
2.57795
-0.0990299
2.89131
-0.100535
3.21461
-0.0921292
2.97747
-0.0754311
2.32614
-0.0563576
1.84332
-0.0345048
1.46217
-0.0181186
1.13915
-0.00728669
0.832941
-0.00139141
0.53988
-0.00104987
0.293773
-0.000149007
0.118605
0.0217728
-0.00204518
0.292125
-0.00746072
0.796769
-0.0171684
1.19047
-0.0295247
1.48704
-0.0437994
1.75925
-0.0588979
2.02221
-0.074499
2.29518
-0.0893953
2.59284
-0.101677
2.90359
-0.107241
3.22017
-0.0993059
2.96954
-0.083458
2.3103
-0.0622786
1.82214
-0.0442458
1.44413
-0.0265252
1.12143
-0.0137718
0.820188
-0.00766345
0.533772
-0.0034126
0.289522
-0.00084297
0.116035
0.0209299
-0.00346067
0.295585
-0.00890863
0.802217
-0.0182812
1.19984
-0.0302454
1.499
-0.0440956
1.7731
-0.0588481
2.03696
-0.0744687
2.3108
-0.0900105
2.60838
-0.102961
2.91654
-0.108805
3.22601
-0.103124
2.96386
-0.0888045
2.29598
-0.0716098
1.80494
-0.0508195
1.42334
-0.0343151
1.10493
-0.021663
0.807536
-0.0120738
0.524183
-0.0061106
0.283559
-0.00159967
0.111524
0.0193302
-0.00416781
0.299753
-0.0102679
0.808317
-0.0195016
1.20907
-0.0309289
1.51043
-0.0441529
1.78632
-0.0586166
2.05143
-0.074422
2.32661
-0.0906661
2.62463
-0.105502
2.93138
-0.115658
3.23617
-0.11284
2.96104
-0.0981548
2.28129
-0.0768631
1.78365
-0.0583651
1.40484
-0.0401699
1.08673
-0.025829
0.793195
-0.0161791
0.514533
-0.00709794
0.274478
-0.00185636
0.106283
0.0174738
-0.00433557
0.304089
-0.0109119
0.814893
-0.0200874
1.21825
-0.0312683
1.52161
-0.0442269
1.79928
-0.0584496
2.06565
-0.0742798
2.34244
-0.0910519
2.6414
-0.106978
2.9473
-0.118145
3.24734
-0.116945
2.95984
-0.104467
2.26881
-0.0870477
1.76623
-0.0638919
1.38169
-0.0455189
1.06836
-0.0305382
0.778214
-0.0173256
0.50132
-0.00791726
0.265069
-0.00186309
0.100229
0.0156107
-0.00440181
0.308491
-0.011488
0.821979
-0.0206277
1.22739
-0.0314326
1.53242
-0.0439261
1.81177
-0.0578959
2.07962
-0.0738114
2.35836
-0.0911411
2.65873
-0.108679
2.96484
-0.123103
3.26176
-0.125695
2.96243
-0.114636
2.25775
-0.0923484
1.74394
-0.0705362
1.35988
-0.0482278
1.04605
-0.0308556
0.760842
-0.0182628
0.488728
-0.00723944
0.254046
-0.00152143
0.0945107
0.0140893
-0.00445061
0.312941
-0.0116501
0.829179
-0.0205913
1.23633
-0.0311774
1.543
-0.0434666
1.82406
-0.057221
2.09338
-0.0730859
2.37422
-0.0908123
2.67646
-0.109279
2.98331
-0.125028
3.27751
-0.130155
2.96756
-0.12073
2.24833
-0.103288
1.7265
-0.0761692
1.33276
-0.0509642
1.02084
-0.0298462
0.739724
-0.0135182
0.4724
-0.00472416
0.245252
-0.000447633
0.0902342
0.0136417
-0.00451864
0.31746
-0.0118095
0.836469
-0.0205587
1.24508
-0.0307814
1.55323
-0.0426308
1.83591
-0.0561093
2.10685
-0.0719672
2.39008
-0.0900827
2.69457
-0.109726
3.00295
-0.128011
3.2958
-0.136987
2.97653
-0.130556
2.2419
-0.109306
1.70525
-0.0831929
1.30664
-0.0511901
0.988841
-0.0241905
0.712724
-0.00640877
0.454618
0.000767808
0.238075
-0.00177835
0.0927803
0.0118633
-0.00451501
0.321975
-0.0116708
0.843625
-0.0200951
1.2535
-0.0300215
1.56315
-0.041616
1.84751
-0.0548654
2.1201
-0.0706101
2.40582
-0.0889181
2.71288
-0.109164
3.0232
-0.128779
3.31541
-0.140119
2.98787
-0.13674
2.23852
-0.121822
1.69034
-0.0909031
1.27573
-0.0536569
0.951594
-0.0142522
0.673319
0.0198149
0.420551
0.0339906
0.2239
0.0246286
0.102142
0.036492
-0.00442926
0.326404
-0.0115046
0.850701
-0.0196864
1.26169
-0.0292103
1.57268
-0.0403334
1.85863
-0.0532608
2.13303
-0.0688675
2.42143
-0.0872889
2.7313
-0.108284
3.04419
-0.129978
3.3371
-0.143977
3.00187
-0.145807
2.24035
-0.128982
1.67351
-0.100578
1.24732
-0.0550947
0.906111
-0.00706426
0.625289
0.0386175
0.374869
0.0446848
0.217832
0.0195668
0.12726
0.0560588
-0.00425605
0.33066
-0.0111206
0.857565
-0.0189437
1.26951
-0.0281048
1.58184
-0.0389517
1.86948
-0.0515976
2.14568
-0.0669744
2.43681
-0.0853894
2.74972
-0.106774
3.06558
-0.129638
3.35997
-0.146157
3.01839
-0.151179
2.24537
-0.143453
1.66579
-0.114054
1.21792
-0.0674961
0.859553
0.00591193
0.551881
0.106557
0.274223
0.187747
0.136643
0.180558
0.13445
0.236616
-0.00412212
0.334782
-0.0109335
0.864377
-0.0187306
1.27731
-0.0278382
1.59094
-0.0387538
1.88039
-0.0517918
2.15871
-0.0680515
2.45307
-0.0880251
2.76969
-0.112105
3.08966
-0.13942
3.38728
-0.161559
3.04053
-0.173074
2.25688
-0.166514
1.65923
-0.142526
1.19393
-0.0907073
0.807734
-0.0363985
0.497572
-0.0792382
0.317063
-0.359147
0.416551
-0.939265
0.714568
0.899093
-1.60174
-0.00393842
0.338721
-0.0105421
0.87098
-0.0180753
1.28484
-0.0270166
1.59989
-0.03788
1.89125
-0.0510428
2.17188
-0.0676877
2.46971
-0.0885627
2.79056
-0.114365
3.11546
-0.145029
3.41795
-0.172898
3.0684
-0.189481
2.27347
-0.200355
1.6701
-0.188328
1.18191
-0.166863
0.786269
-0.254714
0.585423
-0.692938
0.755287
-1.43645
1.16006
-2.04549
1.32361
1.21745
-2.36385
-0.00373311
0.342454
-0.0101132
0.87736
-0.0174602
1.29219
-0.0261802
1.60861
-0.036826
1.9019
-0.0500089
2.18506
-0.0670125
2.48671
-0.0887296
2.81228
-0.116335
3.14306
-0.150611
3.45222
-0.183802
3.10159
-0.211041
2.30071
-0.224306
1.68336
-0.220169
1.17777
-0.307121
0.873221
-0.753408
1.03171
-1.5374
1.53928
-2.1066
1.72926
-2.34676
1.56377
1.33208
-2.46138
-0.00354771
0.346002
-0.00957745
0.88339
-0.0165785
1.29919
-0.0250678
1.6171
-0.0355939
1.91243
-0.0488364
2.1983
-0.066119
2.504
-0.0885999
2.83476
-0.117877
3.17234
-0.155911
3.49026
-0.196173
3.14185
-0.228195
2.33273
-0.259678
1.71485
-0.343898
1.26199
-0.690361
1.21968
-1.43283
1.77418
-2.0243
2.13074
-2.26468
1.96965
-2.37829
1.67738
1.39679
-2.443
-0.00328238
0.349284
-0.0089643
0.889072
-0.0156964
1.30592
-0.0239052
1.6253
-0.0342248
1.92275
-0.0474069
2.21148
-0.0649021
2.52149
-0.0880551
2.85792
-0.118993
3.20328
-0.160407
3.53167
-0.206813
3.18826
-0.253485
2.3794
-0.299969
1.76133
-0.480754
1.44277
-1.09143
1.83036
-1.78389
2.46664
-2.10675
2.4536
-2.25566
2.11856
-2.33794
1.75966
1.46255
-2.40371
-0.00321773
0.352502
-0.00878539
0.89464
-0.0154186
1.31255
-0.023659
1.63354
-0.0342642
1.93335
-0.0477766
2.225
-0.06578
2.5395
-0.0898698
2.88201
-0.122543
3.23595
-0.16784
3.57697
-0.221815
3.24223
-0.269928
2.42751
-0.361649
1.85305
-0.750357
1.83148
-1.48708
2.56709
-1.96243
2.94199
-2.16263
2.6538
-2.26907
2.22499
-2.3461
1.8367
1.52627
-2.40982
-0.00330727
0.355809
-0.00914029
0.900473
-0.0162003
1.31961
-0.0248619
1.64221
-0.0358993
1.94439
-0.0500039
2.2391
-0.0688644
2.55836
-0.0941827
2.90732
-0.128827
3.27059
-0.177566
3.62571
-0.235056
3.29972
-0.301314
2.49377
-0.491502
2.04324
-1.04534
2.38532
-1.67554
3.19729
-1.95307
3.21952
-2.10035
2.80108
-2.21434
2.33898
-2.30789
1.93024
1.58809
-2.36971
-0.00336338
0.359172
-0.00948892
0.906598
-0.01686
1.32698
-0.0259873
1.65133
-0.0376094
1.95601
-0.0524366
2.25393
-0.0722064
2.57813
-0.0988199
2.93394
-0.13536
3.30713
-0.187997
3.67834
-0.252234
3.36396
-0.33985
2.58139
-0.621166
2.32456
-1.26188
3.02603
-1.75219
3.6876
-1.9596
3.42693
-2.10008
2.94156
-2.22401
2.46292
-2.33484
2.04107
1.64676
-2.39352
-0.0033444
0.362517
-0.00974914
0.913003
-0.0176924
1.33493
-0.0273482
1.66099
-0.039437
1.9681
-0.0548958
2.26939
-0.0755741
2.5988
-0.103446
2.96181
-0.141922
3.34561
-0.196949
3.73337
-0.2649
3.43191
-0.391206
2.70769
-0.776015
2.70936
-1.40773
3.65775
-1.76279
4.04265
-1.93625
3.6004
-2.03858
3.04389
-2.12752
2.55186
-2.19528
2.10883
1.63973
-2.18825
-0.00327841
0.365795
-0.00996637
0.919691
-0.0182242
1.34318
-0.0284003
1.67117
-0.0411872
1.98089
-0.0574487
2.28565
-0.0790882
2.62044
-0.108259
2.99098
-0.148476
3.38583
-0.206026
3.79092
-0.286042
3.51193
-0.456157
2.87781
-0.905904
3.15911
-1.4613
4.21315
-1.72406
4.30541
-1.8767
3.75303
-1.97031
3.1375
-1.97239
2.55394
-1.90434
2.04078
1.60614
-1.87075
-0.00307916
0.368874
-0.00996269
0.926575
-0.0188355
1.35206
-0.0295073
1.68184
-0.0426346
1.99401
-0.0592624
2.30228
-0.0813023
2.64248
-0.110836
3.02051
-0.151531
3.42652
-0.20786
3.84725
-0.293317
3.59739
-0.498637
3.08313
-0.985826
3.6463
-1.42792
4.65525
-1.59466
4.47215
-1.66251
3.82088
-1.66742
3.14241
-1.52031
2.40684
-1.02046
1.54093
0.585675
-0.00262654
0.371501
-0.00984649
0.933794
-0.0189921
1.3612
-0.0303158
1.69316
-0.0445548
2.00825
-0.062595
2.32032
-0.0865405
2.66643
-0.118786
3.05276
-0.163283
3.47102
-0.22672
3.91069
-0.33129
3.70196
-0.585229
3.33707
-1.12117
4.18224
-1.48131
5.01539
-1.58137
4.57221
-1.57948
3.81898
-1.47674
3.03967
-1.23749
2.16759
-0.635059
0.938502
-0.0493839
-0.00211319
0.373614
-0.009237
0.940918
-0.0190715
1.37104
-0.0311744
1.70526
-0.0462015
2.02328
-0.0654401
2.33956
-0.0911906
2.69218
-0.126062
3.08763
-0.174966
3.51992
-0.244179
3.9799
-0.366073
3.82385
-0.679514
3.65051
-1.2379
4.74063
-1.50122
5.27871
-1.56064
4.63162
-1.53958
3.79792
-1.33744
2.83753
-0.786771
1.61692
-0.110555
0.262286
-0.159939
-0.00162643
0.375241
-0.00851793
0.94781
-0.0182951
1.38081
-0.0309552
1.71792
-0.0470375
2.03936
-0.0676632
2.36018
-0.0953518
2.71987
-0.13306
3.12534
-0.185414
3.57228
-0.263201
4.05769
-0.412682
3.97333
-0.782837
4.02066
-1.31722
5.27501
-1.49544
5.45693
-1.5268
4.66298
-1.43906
3.71018
-1.1055
2.50397
-0.31673
0.828147
0.0259587
-0.0804027
-0.13398
-0.000594817
0.375835
-0.0066726
0.953888
-0.0170509
1.39119
-0.0304909
1.73136
-0.0471835
2.05605
-0.068904
2.3819
-0.0982671
2.74923
-0.138255
3.16532
-0.193621
3.62765
-0.279748
4.14381
-0.453232
4.14682
-0.887299
4.45473
-1.36046
5.74817
-1.47852
5.57499
-1.48176
4.66622
-1.26139
3.48981
-0.693055
1.93564
-0.0634033
0.198496
0.0312408
-0.175047
-0.102739
0.000588256
0.375247
-0.00439608
0.958872
-0.0144151
1.40121
-0.0282466
1.7452
-0.0456912
2.0735
-0.0686301
2.40484
-0.0996689
2.78027
-0.141985
3.20764
-0.20017
3.68583
-0.295425
4.23907
-0.497623
4.34901
-0.980659
4.93777
-1.35749
6.125
-1.42247
5.63998
-1.37899
4.62274
-1.08965
3.20047
-0.328626
1.17461
0.00326068
-0.133391
0.0145882
-0.186374
-0.0881512
0.00312691
0.37212
0.000242837
0.961756
-0.0106022
1.41206
-0.0250871
1.75968
-0.0426779
2.09109
-0.0665111
2.42867
-0.0987313
2.81249
-0.142569
3.25148
-0.203516
3.74678
-0.306859
4.34241
-0.531543
4.5737
-1.03942
5.44565
-1.3177
6.40328
-1.35933
5.68161
-1.22394
4.48735
-0.781936
2.75847
-0.0760768
0.468753
0.0459471
-0.255415
0.0256371
-0.166064
-0.0625141
0.00500111
0.367119
0.00356
0.963197
-0.005421
1.42104
-0.0190368
1.7733
-0.0368991
2.10895
-0.0614593
2.45323
-0.0946059
2.84564
-0.139947
3.29682
-0.202981
3.80981
-0.313551
4.45298
-0.569196
4.82934
-1.06092
5.93738
-1.25397
6.59633
-1.26577
5.6934
-1.05069
4.27228
-0.466772
2.17455
-0.0111837
0.0131646
0.000428024
-0.267027
0.00954938
-0.175186
-0.0529648
0.00839541
0.358724
0.00971372
0.961879
0.00249389
1.42826
-0.0105917
1.78638
-0.0284182
2.12678
-0.0531695
2.47799
-0.0864615
2.87893
-0.131676
3.34203
-0.196071
3.87421
-0.312884
4.56979
-0.586142
5.1026
-1.03583
6.38706
-1.15878
6.71928
-1.1466
5.68123
-0.892872
4.01855
-0.270258
1.55193
-0.0659145
-0.191179
-0.0356581
-0.297283
-0.0116844
-0.199159
-0.0646492
0.0119087
0.346815
0.0172555
0.956532
0.0130075
1.43251
0.00243742
1.79695
-0.0158623
2.14508
-0.0397403
2.50186
-0.0723242
2.91151
-0.11747
3.38718
-0.182024
3.93876
-0.301473
4.68924
-0.583209
5.38434
-0.968904
6.77276
-1.04005
6.79042
-0.973374
5.61455
-0.692655
3.73783
-0.0990274
0.958303
-0.02237
-0.267837
-0.0229999
-0.296653
-0.00895572
-0.213204
-0.0736049
0.0180113
0.328804
0.0292607
0.945283
0.0278107
1.43396
0.017846
1.80692
0.00138704
2.16154
-0.0205035
2.52375
-0.0514861
2.9425
-0.0942751
3.42997
-0.156268
4.00075
-0.275055
4.80803
-0.541113
5.65039
-0.853273
7.08492
-0.887661
6.82481
-0.791903
5.51879
-0.460727
3.40665
0.0339141
0.463662
0.049405
-0.283327
0.0316377
-0.278886
0.0106608
-0.192227
-0.062944
0.0243789
0.304425
0.0429943
0.926667
0.0469377
1.43001
0.0402666
1.81359
0.0276401
2.17416
0.00745309
2.54394
-0.0209457
2.97089
-0.0605826
3.46961
-0.119019
4.05919
-0.229923
4.91893
-0.461916
5.88239
-0.689436
7.31244
-0.730737
6.86611
-0.617689
5.40574
-0.288183
3.07715
0.0132514
0.162227
0.0261386
-0.296215
0.0327731
-0.285521
0.0178037
-0.177257
-0.0451403
0.0340218
0.270403
0.0631317
0.897557
0.0735815
1.41956
0.0712313
1.81594
0.0621904
2.18321
0.0449418
2.56119
0.0202759
2.99556
-0.0145839
3.50447
-0.0648492
4.10945
-0.158059
5.01214
-0.337463
6.06179
-0.488811
7.46379
-0.536422
6.91372
-0.453983
5.3233
-0.139845
2.76301
-0.0229351
0.0453172
-0.0105419
-0.308608
0.0244202
-0.320483
0.0379901
-0.190827
-0.00715028
0.0435969
0.226806
0.0857812
0.855373
0.106259
1.39909
0.110765
1.81143
0.106633
2.18734
0.0942389
2.57358
0.0762984
3.0135
0.0493375
3.53143
0.00401102
4.15478
-0.0572098
5.07337
-0.17855
6.18313
-0.259086
7.54432
-0.282834
6.93747
-0.281252
5.32172
-0.137666
2.61942
-0.226713
0.134364
-0.192268
-0.343052
-0.0859771
-0.426774
0.0177768
-0.294581
0.0106266
0.0554251
0.171381
0.115707
0.795091
0.150414
1.36438
0.163015
1.79883
0.165189
2.18516
0.158261
2.58051
0.147493
3.02427
0.131197
3.54772
0.108024
4.17795
0.0742463
5.10714
0.0540518
6.20332
0.0285415
7.56983
-0.0367351
7.00274
-0.196774
5.48176
-0.388644
2.81129
-0.654779
0.400499
-0.638277
-0.359554
-0.453913
-0.611137
-0.205912
-0.542583
-0.195285
0.0588793
0.112502
0.145514
0.708456
0.200261
1.30963
0.22649
1.7726
0.237784
2.17387
0.238584
2.57971
0.237012
3.02584
0.233043
3.55169
0.229741
4.18126
0.231057
5.10583
0.321238
6.11314
0.416004
7.47507
0.383811
7.03494
0.249424
5.61615
-0.165207
3.22592
-0.662185
0.897477
-0.820242
-0.201497
-0.643681
-0.787698
-0.351502
-0.834761
-0.546787
0.051033
0.0614688
0.175678
0.583811
0.264179
1.22113
0.306862
1.72992
0.328623
2.15211
0.339978
2.56836
0.347234
3.01859
0.35944
3.53949
0.383601
4.1571
0.432588
5.05684
0.654693
5.89104
0.96057
7.16919
1.20328
6.79223
1.36443
5.455
0.980597
3.60976
0.316179
1.5619
-0.162782
0.277464
-0.37341
-0.577071
-0.263642
-0.94453
-0.810429
0.0363154
0.0251533
0.207709
0.412417
0.327729
1.10111
0.400517
1.65713
0.438486
2.11414
0.46189
2.54495
0.47749
3.00299
0.503537
3.51344
0.553877
4.10676
0.666541
4.94418
1.02058
5.537
1.63775
6.55202
2.04126
6.38872
2.31922
5.17704
2.17548
3.75349
1.58332
2.15406
1.0347
0.826089
0.435339
0.0222891
0.128218
-0.637409
-0.682211
0.0314169
-0.00626358
0.228895
0.214939
0.414976
0.915029
0.515961
1.55615
0.568627
2.06147
0.606426
2.50715
0.633722
2.97569
0.671214
3.47595
0.748175
4.02979
0.904131
4.78822
1.32771
5.11342
2.0965
5.78323
2.49902
5.9862
2.70014
4.97592
2.61916
3.83448
2.13115
2.64206
1.5324
1.42484
1.01471
0.539979
0.42821
-0.0509096
-0.254001
0.0283647
-0.0346283
0.179308
0.0639959
0.466468
0.627869
0.640274
1.38234
0.722676
1.97907
0.769944
2.45989
0.809258
2.93638
0.84861
3.4366
0.923373
3.95503
1.06919
4.6424
1.38576
4.79686
2.11311
5.05588
2.46886
5.63044
2.61386
4.83092
2.53858
3.90976
2.18932
2.99132
1.6037
2.01046
1.00081
1.14287
0.414455
0.535448
0.160453
0.0106593
-0.0452876
0.0941501
-0.0194949
0.404243
0.317777
0.640555
1.14603
0.755014
1.86461
0.788748
2.42615
0.798862
2.92626
0.788439
3.44702
0.782874
3.96059
0.82038
4.60489
0.909043
4.7082
1.2425
4.72243
1.45636
5.41657
1.45836
4.82892
1.38232
3.9858
1.20529
3.16836
0.893902
2.32185
0.555065
1.4817
0.233943
0.85657
0.394397
-0.00344415
-0.0418434
0.0355283
-0.0584674
0.237555
0.11575
0.479423
0.904159
0.600899
1.74314
0.644371
2.38268
0.661729
2.9089
0.657967
3.45078
0.644153
3.97441
0.646509
4.60254
0.686507
4.6682
0.883659
4.52528
1.09711
5.20312
1.09324
4.83279
1.02352
4.05551
0.891934
3.29995
0.67509
2.53869
0.41306
1.74373
0.164913
1.10472
0.55931
0.00815791
-0.0500013
0.0431841
-0.0934936
0.140742
0.0181927
0.346043
0.698857
0.458593
1.63059
0.501169
2.3401
0.515266
2.89481
0.518876
3.44717
0.511037
3.98225
0.503364
4.61021
0.515063
4.6565
0.636872
4.40347
0.791628
5.04837
0.792269
4.83215
0.724102
4.12368
0.617137
3.40691
0.464087
2.69174
0.274634
1.93319
0.0997351
1.27962
0.659045
0.0294402
-0.0794415
0.0780482
-0.142102
0.1218
-0.0255594
0.23536
0.585297
0.319841
1.54611
0.360292
2.29965
0.375317
2.87978
0.38509
3.4374
0.385557
3.98178
0.381139
4.61463
0.377577
4.66006
0.4444
4.33665
0.553536
4.93923
0.5511
4.83458
0.489249
4.18553
0.408333
3.48783
0.302118
2.79796
0.171769
2.06353
0.0510209
1.40036
0.710066
0.0429286
-0.12237
0.0872821
-0.186455
0.0812795
-0.0195568
0.096392
0.570185
0.153795
1.4887
0.198764
2.25468
0.227241
2.85131