/*--------------------------------*- C++ -*----------------------------------*\
| =========                 |                                                 |
| \\      /  F ield         | OpenFOAM: The Open Source CFD Toolbox           |
|  \\    /   O peration     | Version:  v2012                                 |
|   \\  /    A nd           | Website:  www.openfoam.com                      |
|    \\/     M anipulation  |                                                 |
\*---------------------------------------------------------------------------*/
FoamFile
{
    version     2.0;
    format      ascii;
    class       volScalarField;
    location    "47";
    object      p;
}
// * * * * * * * * * * * * * * * * * * * * * * * * * * * * * * * * * * * * * //

dimensions      [0 2 -2 0 0 0 0];


internalField   nonuniform List<scalar> 
2200
(
0.776679
0.755179
0.739271
0.723601
0.708986
0.696459
0.686095
0.677981
0.672265
0.669289
0.669733
0.67352
0.679839
0.688385
0.699058
0.711812
0.72659
0.742482
0.758509
0.780012
0.70912
0.705862
0.702935
0.698812
0.693345
0.686866
0.680239
0.674273
0.669753
0.667334
0.667796
0.671069
0.676216
0.682648
0.689612
0.696351
0.702005
0.706121
0.708993
0.712342
0.669207
0.669425
0.671482
0.672825
0.673213
0.672354
0.670366
0.667677
0.665113
0.663598
0.664122
0.666537
0.669787
0.672988
0.675313
0.676318
0.676035
0.675003
0.673316
0.673072
0.646738
0.648187
0.650781
0.653229
0.65566
0.657668
0.658812
0.659026
0.658633
0.658312
0.658907
0.660246
0.661426
0.661793
0.661093
0.659413
0.657248
0.65503
0.652419
0.651012
0.632416
0.634389
0.6372
0.640026
0.642878
0.645694
0.648136
0.649973
0.651175
0.651946
0.652633
0.653058
0.65278
0.651645
0.649761
0.647374
0.644817
0.642099
0.639313
0.637384
0.625092
0.626691
0.628889
0.631413
0.634074
0.636731
0.639307
0.641705
0.643693
0.645163
0.64597
0.645944
0.645065
0.643519
0.641585
0.639414
0.637069
0.634719
0.632619
0.631043
0.621705
0.622729
0.623995
0.625854
0.627983
0.630132
0.632301
0.634565
0.636747
0.638543
0.639514
0.639472
0.638649
0.637396
0.635975
0.634383
0.632667
0.631077
0.629953
0.628936
0.619081
0.619748
0.620377
0.621676
0.623286
0.624961
0.626687
0.628569
0.630571
0.632462
0.633631
0.633863
0.633494
0.632838
0.63203
0.631058
0.629971
0.629027
0.628573
0.627896
0.615937
0.616385
0.616776
0.617758
0.619
0.620362
0.62183
0.623456
0.62525
0.627136
0.628563
0.629276
0.62946
0.629345
0.629003
0.628485
0.627869
0.627304
0.627103
0.62664
0.611966
0.612265
0.612624
0.613487
0.614585
0.615834
0.617239
0.618804
0.620545
0.622482
0.624228
0.625433
0.626112
0.626404
0.626419
0.626212
0.625854
0.625489
0.625342
0.62502
0.607313
0.607513
0.60788
0.608708
0.609803
0.611109
0.612612
0.614298
0.616186
0.618317
0.620456
0.622131
0.623216
0.623812
0.624037
0.624053
0.623874
0.623644
0.623514
0.623283
0.602247
0.602392
0.602765
0.603571
0.604704
0.606118
0.607812
0.609775
0.612005
0.614546
0.61718
0.619324
0.62074
0.621571
0.621971
0.622111
0.622089
0.621987
0.62189
0.621711
0.596802
0.596911
0.597287
0.598103
0.59932
0.600908
0.602848
0.605157
0.607877
0.611023
0.614238
0.61681
0.618545
0.619632
0.620273
0.620584
0.620744
0.620772
0.620715
0.620562
0.590938
0.591004
0.591384
0.592233
0.593574
0.595347
0.597556
0.600247
0.603489
0.607308
0.61126
0.614447
0.616616
0.618075
0.619041
0.619625
0.619985
0.620133
0.620117
0.619975
0.584597
0.584634
0.585047
0.585945
0.587397
0.58935
0.591831
0.594927
0.598775
0.603396
0.608198
0.612177
0.615024
0.616987
0.618361
0.619292
0.61986
0.620143
0.620172
0.620038
0.577749
0.577709
0.578121
0.579099
0.580767
0.582953
0.585747
0.589326
0.593895
0.59948
0.605375
0.610259
0.613857
0.616465
0.618359
0.619676
0.620516
0.62095
0.621027
0.620895
0.570037
0.570015
0.570462
0.571583
0.57346
0.575968
0.579221
0.583413
0.588776
0.595449
0.602623
0.608713
0.613288
0.616678
0.619139
0.620866
0.621996
0.622586
0.622723
0.622586
0.561351
0.561374
0.561779
0.562961
0.565192
0.568158
0.57202
0.576992
0.583363
0.591369
0.600133
0.607735
0.613454
0.617701
0.620823
0.623014
0.624454
0.625204
0.625395
0.625248
0.551282
0.551254
0.551798
0.553226
0.555766
0.559282
0.563984
0.570079
0.577874
0.587631
0.59828
0.607483
0.614505
0.619666
0.623453
0.626187
0.62799
0.628909
0.62915
0.62899
0.539328
0.539254
0.539922
0.541758
0.544883
0.549203
0.555026
0.562627
0.572382
0.584433
0.597276
0.608171
0.616425
0.622651
0.627266
0.630571
0.632745
0.633836
0.634127
0.633954
0.525185
0.525062
0.525818
0.528042
0.531951
0.537384
0.544677
0.554168
0.566267
0.581022
0.596465
0.609478
0.619311
0.626758
0.632282
0.636291
0.638896
0.640167
0.640507
0.640309
0.507982
0.507884
0.50886
0.511572
0.516394
0.523203
0.532356
0.544168
0.559039
0.576966
0.595612
0.611258
0.62305
0.631937
0.638608
0.643399
0.646498
0.647977
0.648368
0.648134
0.486662
0.486498
0.487778
0.491272
0.497464
0.506256
0.517964
0.532901
0.551283
0.572968
0.595226
0.613772
0.627772
0.638332
0.646235
0.652009
0.655679
0.657355
0.657772
0.657484
0.458959
0.458964
0.461008
0.465901
0.474346
0.486229
0.501737
0.520935
0.543803
0.56999
0.596205
0.617747
0.633909
0.646134
0.655381
0.662109
0.666297
0.668142
0.668549
0.668203
0.421937
0.422173
0.425689
0.433499
0.445962
0.462805
0.483602
0.508255
0.536532
0.567882
0.598407
0.623096
0.641547
0.655487
0.666035
0.673654
0.678249
0.680168
0.680524
0.680118
0.372377
0.372782
0.379739
0.392762
0.411612
0.435567
0.463363
0.49464
0.529129
0.566254
0.601508
0.629523
0.650319
0.666079
0.678009
0.686465
0.691287
0.693078
0.693247
0.692872
0.306651
0.309453
0.324547
0.345782
0.373448
0.406163
0.441983
0.480654
0.522032
0.565542
0.606067
0.638098
0.662066
0.680259
0.693991
0.703781
0.709067
0.710739
0.710731
0.710554
0.231726
0.241205
0.266302
0.297305
0.335022
0.37674
0.420686
0.467027
0.515671
0.565995
0.61272
0.649602
0.677136
0.698192
0.714315
0.725557
0.731271
0.732632
0.732556
0.732567
0.164671
0.179498
0.210931
0.250697
0.297885
0.348454
0.400446
0.454592
0.510653
0.567958
0.620337
0.661524
0.692344
0.71588
0.733631
0.746061
0.752238
0.753706
0.754066
0.754065
0.113478
0.126726
0.163554
0.209516
0.264059
0.322102
0.3815
0.442927
0.505824
0.569444
0.627114
0.672556
0.70644
0.732231
0.751767
0.76542
0.772048
0.774128
0.774345
0.774411
0.0713201
0.0838349
0.124293
0.174181
0.234169
0.298155
0.363954
0.431794
0.500954
0.57068
0.634119
0.683118
0.719481
0.747338
0.768203
0.782641
0.789941
0.792402
0.79264
0.79274
0.0350152
0.0478099
0.0910653
0.143793
0.207995
0.276687
0.347871
0.42137
0.496374
0.571917
0.63984
0.69228
0.731264
0.760513
0.782582
0.797603
0.805209
0.807946
0.808274
0.808375
0.00331513
0.0162815
0.0616213
0.116933
0.184728
0.257378
0.333175
0.411589
0.491561
0.571961
0.644237
0.700342
0.74104
0.771735
0.79439
0.809885
0.818009
0.820933
0.821407
0.821483
-0.0251367
-0.0120421
0.0348554
0.0925955
0.163588
0.239662
0.319401
0.401998
0.486406
0.571725
0.648725
0.707119
0.749594
0.781138
0.804297
0.820185
0.828503
0.831732
0.832285
0.832344
-0.0512042
-0.0380596
0.0100768
0.070178
0.143933
0.222967
0.306109
0.39243
0.481092
0.570833
0.651231
0.712445
0.756762
0.7892
0.812829
0.828828
0.837626
0.840943
0.841584
0.841595
-0.0756713
-0.0622515
-0.0131654
0.0491318
0.125283
0.206933
0.293121
0.382819
0.475229
0.568789
0.65319
0.717657
0.763133
0.796399
0.820489
0.83659
0.845366
0.848794
0.84939
0.849283
-0.0987104
-0.0850807
-0.0351357
0.029073
0.1073
0.191324
0.280257
0.372906
0.468578
0.566043
0.654567
0.721525
0.768925
0.803224
0.827459
0.843484
0.852165
0.855527
0.856173
0.856016
-0.120496
-0.106799
-0.0560939
0.00975444
0.0898093
0.175964
0.267293
0.36256
0.461316
0.562526
0.654774
0.725022
0.774681
0.809553
0.83402
0.849903
0.858312
0.861632
0.86221
0.862126
-0.14137
-0.127531
-0.0762182
-0.00898429
0.0726436
0.160689
0.254159
0.351845
0.453487
0.558122
0.65437
0.728269
0.779999
0.816087
0.84053
0.856035
0.864292
0.867342
0.867904
0.867801
-0.161743
-0.147447
-0.0956685
-0.0272458
0.055739
0.145473
0.240897
0.340812
0.445102
0.552992
0.653216
0.730722
0.785143
0.822731
0.847414
0.862478
0.870063
0.87283
0.873234
0.873139
-0.181752
-0.166737
-0.114533
-0.0450589
0.0390922
0.130322
0.227509
0.32944
0.43612
0.547077
0.651145
0.732453
0.790216
0.829863
0.855063
0.86936
0.876089
0.878001
0.878256
0.878136
-0.201307
-0.185536
-0.132886
-0.062437
0.0227358
0.115266
0.213991
0.317712
0.426559
0.540335
0.648032
0.733381
0.794973
0.837434
0.863855
0.877358
0.882386
0.882873
0.882769
0.882662
-0.220283
-0.203898
-0.150744
-0.079375
0.00669019
0.100325
0.200361
0.305679
0.416532
0.53282
0.643829
0.733409
0.799256
0.845489
0.874215
0.887216
0.890009
0.887457
0.886885
0.887709
-0.238622
-0.221785
-0.168105
-0.0958712
-0.00901506
0.0855557
0.186704
0.293441
0.406106
0.524518
0.638294
0.732076
0.802709
0.853604
0.886226
0.900222
0.900671
0.894021
0.888833
0.887301
-0.256315
-0.239126
-0.184916
-0.111891
-0.024336
0.0710284
0.173117
0.281057
0.395233
0.515454
0.631697
0.729342
0.804721
0.861516
0.899674
0.917291
0.919153
0.906991
0.905533
0.909801
-0.273354
-0.255832
-0.201119
-0.127387
-0.0392119
0.0568232
0.159677
0.268574
0.38396
0.505761
0.62407
0.724707
0.80503
0.868064
0.913526
0.938095
0.944192
0.915785
0.874723
0.838184
-0.289691
-0.27191
-0.216726
-0.142411
-0.053735
0.0428124
0.146221
0.255803
0.372092
0.495184
0.615167
0.718127
0.802564
0.872171
0.926635
0.961601
0.982629
0.966782
0.983623
1.04096
-0.305274
-0.287387
-0.231826
-0.157099
-0.0680847
0.0287671
0.132469
0.242426
0.359269
0.48324
0.604275
0.708688
0.796167
0.870963
0.930658
0.969852
0.984264
0.965112
0.925053
0.93901
-0.320084
-0.302251
-0.246369
-0.17139
-0.0821864
0.0147793
0.118554
0.228622
0.345656
0.469935
0.591404
0.696431
0.784134
0.86001
0.919975
0.958079
0.948663
0.896685
0.833528
0.821508
-0.334105
-0.316486
-0.260363
-0.185297
-0.0960412
0.000859977
0.104512
0.214433
0.331268
0.455296
0.576543
0.680718
0.766277
0.83732
0.891253
0.902094
0.86863
0.793232
0.719422
0.698354
-0.347379
-0.3301
-0.273823
-0.198836
-0.10967
-0.0129983
0.090352
0.199872
0.316114
0.439319
0.559583
0.661588
0.741498
0.800607
0.829978
0.818581
0.762905
0.662254
0.575516
0.554123
-0.360363
-0.34349
-0.287153
-0.212387
-0.123427
-0.0271036
0.0758021
0.184702
0.300025
0.421902
0.540224
0.638385
0.71094
0.75436
0.749763
0.715983
0.607054
0.485591
0.378843
0.352399
-0.373958
-0.35747
-0.301049
-0.226569
-0.137888
-0.0419495
0.0604347
0.168574
0.282742
0.402781
0.518135
0.610991
0.676242
0.695744
0.662402
0.576139
0.421252
0.269443
0.14091
0.113894
-0.388681
-0.372423
-0.315844
-0.241632
-0.153238
-0.0576714
0.0441535
0.151433
0.264256
0.381987
0.493392
0.580366
0.634703
0.626534
0.574133
0.4258
0.226734
0.0147602
-0.164847
-0.212709
-0.404648
-0.388472
-0.33158
-0.257582
-0.16946
-0.0742526
0.0269772
0.133312
0.244618
0.359613
0.465939
0.547457
0.586867
0.547393
0.46064
0.273377
0.04246
-0.245995
-0.567284
-0.7144
-0.421927
-0.405668
-0.348393
-0.274527
-0.186609
-0.0917526
0.00884637
0.114146
0.223756
0.335673
0.436138
0.511476
0.533512
0.463677
0.327951
0.122513
-0.111656
-0.455702
-1.04334
-1.61577
-0.440604
-0.424155
-0.366333
-0.292505
-0.204708
-0.110168
-0.0102068
0.0940144
0.201841
0.310624
0.405211
0.47281
0.476816
0.39
0.199507
-0.034552
-0.23771
-0.473107
-1.03076
-2.55179
-0.460692
-0.443938
-0.385526
-0.311669
-0.223914
-0.129692
-0.0304146
0.0726409
0.178537
0.283985
0.372732
0.430852
0.415489
0.33216
0.10608
-0.132537
-0.280905
-0.318743
-0.309708
-0.698898
-0.482131
-0.46529
-0.406115
-0.332287
-0.244631
-0.150825
-0.0524028
0.0492617
0.152919
0.254473
0.337821
0.385535
0.354661
0.283632
0.0566216
-0.146813
-0.2581
-0.266204
-0.213176
-0.253705
-0.504734
-0.487952
-0.428124
-0.354453
-0.266936
-0.17369
-0.0763199
0.023718
0.124797
0.221848
0.30054
0.338565
0.300948
0.230958
0.0244315
-0.137337
-0.219704
-0.227308
-0.275132
-0.27972
-0.528539
-0.511835
-0.451422
-0.378129
-0.290817
-0.198303
-0.102204
-0.00405373
0.0941319
0.186556
0.260727
0.289271
0.254001
0.170998
-0.00337791
-0.127833
-0.198279
-0.173894
-0.194872
-0.196454
-0.553254
-0.536385
-0.475955
-0.403252
-0.316122
-0.22459
-0.129971
-0.0339248
0.0610724
0.149021
0.218606
0.236864
0.213357
0.103525
-0.0383205
-0.122661
-0.16299
-0.208598
-0.184089
-0.192406
-0.578661
-0.56137
-0.501525
-0.429588
-0.342629
-0.252377
-0.159419
-0.0656795
0.0257456
0.109501
0.174868
0.183114
0.170945
0.0426406
-0.0753307
-0.140378
-0.120136
-0.179475
-0.159774
-0.164565
-0.603846
-0.586323
-0.528008
-0.45678
-0.369992
-0.281427
-0.19027
-0.0989619
-0.0115857
0.0683666
0.131047
0.131782
0.120201
-0.00941515
-0.103254
-0.155868
-0.142475
-0.1596
-0.16466
-0.163149
-0.628412
-0.611033
-0.55456
-0.484082
-0.397903
-0.311342
-0.222079
-0.133371
-0.0503849
0.0259293
0.0870623
0.0841188
0.0638593
-0.0534011
-0.118995
-0.151026
-0.186164
-0.16037
-0.167215
-0.162129
-0.651357
-0.634703
-0.580152
-0.510661
-0.425953
-0.341582
-0.254338
-0.168331
-0.0897486
-0.0174347
0.0430256
0.039632
0.00914165
-0.090399
-0.136039
-0.127275
-0.195407
-0.146607
-0.160404
-0.15334
-0.671996
-0.656446
-0.603771
-0.53558
-0.453711
-0.371306
-0.286301
-0.203179
-0.128674
-0.061212
-0.00148567
-0.00232955
-0.0387667
-0.109465
-0.149117
-0.113554
-0.15905
-0.136104
-0.141193
-0.138683
-0.688795
-0.674861
-0.624723
-0.558362
-0.479928
-0.399552
-0.317187
-0.237126
-0.166129
-0.104539
-0.0461763
-0.0442122
-0.0770118
-0.112644
-0.142634
-0.125595
-0.135948
-0.135962
-0.133778
-0.133329
-0.700872
-0.688996
-0.641914
-0.578062
-0.503251
-0.42533
-0.34592
-0.269102
-0.201163
-0.146085
-0.0891405
-0.0849144
-0.11584
-0.109151
-0.116625
-0.134838
-0.124562
-0.140341
-0.136647
-0.137674
-0.706879
-0.69738
-0.654363
-0.593515
-0.522157
-0.447478
-0.371404
-0.297984
-0.23278
-0.183786
-0.128431
-0.124084
-0.165544
-0.129953
-0.0570834
-0.0893294
-0.0926401
-0.127696
-0.14058
-0.144651
-0.706628
-0.699239
-0.660336
-0.60313
-0.535661
-0.46467
-0.39223
-0.32226
-0.260171
-0.215062
-0.162846
-0.160827
-0.222085
-0.222121
-0.124774
-0.156118
-0.178715
-0.194973
-0.199088
-0.199813
-0.699194
-0.691937
-0.658181
-0.605756
-0.542643
-0.475742
-0.40711
-0.340238
-0.280607
-0.237535
-0.190887
-0.197911
-0.298273
-0.452622
-0.613007
-0.710177
-0.72344
-0.666323
-0.61382
-0.577636
-0.679979
-0.671929
-0.645447
-0.599826
-0.542193
-0.479772
-0.414895
-0.350333
-0.29124
-0.248021
-0.205983
-0.207975
-0.353627
-0.635748
-1.01786
-1.19473
-1.19503
-1.14959
-1.07444
-1.00775
-0.640746
-0.633228
-0.620912
-0.585756
-0.534419
-0.476489
-0.415222
-0.351449
-0.289614
-0.241262
-0.199243
-0.167911
-0.245515
-0.397556
-0.603468
-0.661854
-0.590139
-0.512804
-0.415865
-0.358907
-0.596655
-0.59321
-0.591198
-0.564124
-0.52061
-0.467338
-0.408106
-0.343506
-0.275413
-0.212823
-0.156216
-0.0591554
0.0644022
0.275832
0.459741
0.642628
0.794933
0.890151
0.937771
0.986001
-0.570889
-0.571703
-0.564047
-0.544278
-0.506464
-0.45538
-0.395464
-0.32865
-0.251446
-0.16553
-0.0760792
0.0784593
0.322718
0.707774
1.08603
1.38916
1.59252
1.71003
1.76519
1.78121
-0.539144
-0.540163
-0.534498
-0.526159
-0.493274
-0.443694
-0.381439
-0.310845
-0.226433
-0.124553
-0.0138803
0.133093
0.399384
0.754403
1.10457
1.39651
1.60671
1.72994
1.78561
1.80271
-0.51207
-0.511046
-0.511198
-0.507137
-0.481351
-0.434471
-0.370366
-0.294882
-0.207143
-0.100123
0.0148136
0.124949
0.363158
0.66355
0.957427
1.21198
1.40914
1.52829
1.58179
1.59703
-0.495601
-0.493121
-0.4944
-0.488716
-0.471926
-0.42788
-0.362008
-0.283602
-0.196059
-0.0936158
0.0153324
0.0910274
0.28171
0.533741
0.770297
0.973323
1.13635
1.23629
1.28035
1.29159
-0.490001
-0.487706
-0.487884
-0.486285
-0.473608
-0.423884
-0.355114
-0.276063
-0.191875
-0.10086
0.00115658
0.0580365
0.19835
0.404944
0.591335
0.744721
0.868405
0.946328
0.980586
0.989569
-0.496813
-0.496812
-0.498567
-0.504627
-0.486706
-0.42319
-0.349378
-0.269896
-0.189399
-0.11173
-0.0164028
0.0318747
0.126877
0.290189
0.436218
0.550981
0.641262
0.699815
0.72491
0.730082
-0.487937
-0.489891
-0.496282
-0.499521
-0.476619
-0.408981
-0.336699
-0.259357
-0.183548
-0.11876
-0.0315523
0.0133858
0.0730522
0.198045
0.31054
0.395539
0.460887
0.503086
0.520514
0.526508
-0.427651
-0.430585
-0.439627
-0.440635
-0.418207
-0.365923
-0.305161
-0.237934
-0.170129
-0.117247
-0.0416924
0.000176617
0.0379067
0.132814
0.215421
0.2761
0.323758
0.357013
0.368788
0.37198
-0.318209
-0.322054
-0.325981
-0.327516
-0.313682
-0.283577
-0.245426
-0.199501
-0.14643
-0.105887
-0.0457317
-0.00924086
0.0162065
0.0890554
0.148251
0.190065
0.224865
0.247834
0.258041
0.260847
-0.197422
-0.199423
-0.20184
-0.204225
-0.199656
-0.188659
-0.172385
-0.148365
-0.115516
-0.0867967
-0.044323
-0.0147137
0.00406476
0.059095
0.101066
0.129407
0.151865
0.165493
0.17189
0.173574
-0.0965459
-0.097669
-0.0996599
-0.103451
-0.106448
-0.108098
-0.1061
-0.0979108
-0.0823136
-0.0653515
-0.0391035
-0.0178007
-0.00316549
0.038317
0.0658882
0.0843002
0.0971023
0.103637
0.105451
0.105296
-0.0256386
-0.0264859
-0.028245
-0.0332773
-0.0414183
-0.049946
-0.0555531
-0.0568415
-0.052597
-0.0456686
-0.0314851
-0.0172542
-0.0065602
0.0206019
0.0382753
0.0492258
0.0555298
0.0575858
0.0567818
0.0556092
0.0154741
0.0148682
0.013279
0.0078579
-0.00185934
-0.0129403
-0.0222243
-0.0283321
-0.0301023
-0.0301077
-0.0231826
-0.015071
-0.00785875
0.00659068
0.0160702
0.0217463
0.0243756
0.0236526
0.0219015
0.0205134
0.0354669
0.034945
0.03349
0.0284286
0.0191228
0.00796002
-0.0024471
-0.0106957
-0.0154019
-0.01897
-0.015881
-0.0124622
-0.00926752
-0.00303533
0.000583851
0.0024433
0.00266014
0.0011136
-0.000872667
-0.00234337
0.042427
0.0420318
0.0408568
0.0366655
0.0287613
0.0188156
0.00870045
-0.000298372
-0.00628477
-0.011242
-0.0104002
-0.0100768
-0.0100864
-0.00788284
-0.00745258
-0.00746358
-0.00894215
-0.0112477
-0.0132084
-0.0146426
0.0419847
0.0417044
0.040806
0.0376267
0.0315727
0.023614
0.0149585
0.00633263
0.000102414
-0.00575491
-0.00634291
-0.00806198
-0.010624
-0.00965416
-0.0101625
-0.0115656
-0.01386
-0.0164653
-0.0183444
-0.0196021
0.0380282
0.0378309
0.0371728
0.0348844
0.0304742
0.0245699
0.0177591
0.0103566
0.00472968
-0.00175583
-0.00363285
-0.00560935
-0.00856045
-0.00894502
-0.0100175
-0.0119979
-0.014258
-0.0160836
-0.0174783
-0.0186619
0.0327326
0.0325947
0.0321049
0.030525
0.0274283
0.0231693
0.0180505
0.0121105
0.00743175
0.000943622
-0.0016733
-0.00384512
-0.00599609
-0.00597641
-0.0074572
-0.0094556
-0.0114516
-0.0130888
-0.0140573
-0.0150207
0.0273789
0.0272623
0.0269057
0.0257799
0.0235769
0.0204971
0.0166067
0.0119508
0.00848277
0.00275846
0.000328846
-0.00146737
-0.00369458
-0.00366785
-0.0049055
-0.00652968
-0.00805313
-0.00919321
-0.0096631
-0.0104425
0.0226435
0.0225534
0.0222973
0.021507
0.0199612
0.0176915
0.0147392
0.0110553
0.00839919
0.00384109
0.00177186
0.000236387
-0.00118222
-0.00109178
-0.0021368
-0.00306001
-0.00375863
-0.0041395
-0.00420331
-0.00493404
0.0185138
0.0184468
0.0182631
0.0177356
0.0166908
0.0150383
0.012937
0.0101315
0.00810469
0.00445841
0.00301355
0.00108217
-0.0001374
0.000787234
0.000857067
0.000874938
0.000931609
0.00103215
0.00115972
0.000472057
0.0149836
0.0149358
0.0148112
0.0144684
0.0137254
0.0125604
0.0110425
0.00889525
0.0074976
0.00470159
0.00365162
0.00235103
0.00111971
0.00170999
0.00289226
0.00379855
0.00436576
0.00465937
0.00489162
0.00429469
0.0117008
0.011668
0.0115916
0.0114187
0.010941
0.010134
0.00911526
0.00760054
0.00665403
0.00444974
0.003795
0.00299088
0.00225589
0.00290752
0.00409491
0.00535689
0.00636386
0.00681316
0.00699979
0.00637877
0.00854349
0.00848312
0.00840402
0.00831801
0.00804314
0.00762124
0.00694771
0.00582767
0.00538589
0.00386089
0.00390384
0.00286028
0.00261373
0.00366022
0.00471599
0.00626123
0.00766762
0.00838907
0.00866273
0.00799585
0.00576287
0.00570794
0.00564137
0.00560682
0.00548116
0.00527663
0.00483297
0.00406296
0.00398561
0.0029609
0.00327599
0.00253175
0.00255552
0.00342886
0.00457828
0.00632054
0.00816217
0.00907488
0.00926208
0.00849002
0.00335576
0.00330117
0.00326993
0.00324107
0.00311421
0.00296104
0.00275698
0.00232455
0.00241087
0.00174649
0.00235111
0.00188
0.00170021
0.00280661
0.00353215
0.0047986
0.00656284
0.00751668
0.00788014
0.00721804
0.00133917
0.00130061
0.00128667
0.00122853
0.00105901
0.00100572
0.0010439
0.000789121
0.00097616
0.000532943
0.00123458
0.00125492
0.00101006
0.00154562
0.00152896
0.00110499
0.000673154
0.000344112
0.000845262
0.000759221
-1.07718
-0.234705
0.0353886
0.312509
0.495301
0.652573
0.780695
0.911179
1.05383
1.13508
-0.0944495
0.313477
0.330967
0.519897
0.645035
0.757289
0.85404
0.940087
0.96774
0.925429
0.284446
0.499071
0.535143
0.67198
0.758709
0.839223
0.905584
0.95535
0.957597
0.971504
0.515199
0.658976
0.694355
0.79693
0.853951
0.912277
0.957328
0.989814
0.998964
1.02259
0.694154
0.796209
0.825978
0.894282
0.938723
0.980162
1.01245
1.03681
1.04666
1.07819
0.838115
0.907301
0.937692
0.980941
1.01717
1.04748
1.0719
1.09267
1.10686
1.1351
0.957714
1.0085
1.03414
1.0623
1.09012
1.11399
1.13403
1.15329
1.1682
1.19467
1.06178
1.09891
1.12007
1.14083
1.16172
1.18118
1.19861
1.21671
1.23159
1.25524
1.15599
1.18517
1.20157
1.21689
1.23305
1.24914
1.26469
1.2816
1.29521
1.31752
1.24441
1.2649
1.27978
1.29297
1.30655
1.32032
1.33381
1.34839
1.35994
1.37958
1.32993
1.34574
1.35956
1.37136
1.38326
1.39489
1.40602
1.4177
1.42537
1.44218
1.41518
1.42773
1.44143
1.45316
1.46378
1.47357
1.48238
1.49065
1.49421
1.50548
1.5039
1.5147
1.52817
1.5377
1.54527
1.55255
1.55975
1.56625
1.56733
1.57471
1.60228
1.60686
1.61506
1.61983
1.62323
1.62772
1.63372
1.64141
1.64528
1.65516
1.71557
1.70247
1.69519
1.68946
1.68674
1.68809
1.69446
1.70683
1.72163
1.7513
1.83757
1.78155
1.75052
1.73333
1.72511
1.72506
1.73386
1.75345
1.78532
1.85456
)
;

boundaryField
{
    wall-4
    {
        type            zeroGradient;
    }
    pressure-outlet-7
    {
        type            fixedValue;
        value           uniform 0;
    }
    velocity-inlet-6
    {
        type            zeroGradient;
    }
    velocity-inlet-5
    {
        type            zeroGradient;
    }
    frontAndBackPlanes
    {
        type            empty;
    }
}


// ************************************************************************* //
