/*--------------------------------*- C++ -*----------------------------------*\
| =========                 |                                                 |
| \\      /  F ield         | OpenFOAM: The Open Source CFD Toolbox           |
|  \\    /   O peration     | Version:  v2012                                 |
|   \\  /    A nd           | Website:  www.openfoam.com                      |
|    \\/     M anipulation  |                                                 |
\*---------------------------------------------------------------------------*/
FoamFile
{
    version     2.0;
    format      ascii;
    class       surfaceScalarField;
    location    "47";
    object      phi;
}
// * * * * * * * * * * * * * * * * * * * * * * * * * * * * * * * * * * * * * //

dimensions      [0 3 -1 0 0 0 0];
oriented        oriented;


internalField   nonuniform List<scalar> 
4262
(
0.10714
0.470848
0.0955813
0.705145
0.0694044
0.85848
0.047393
1.02077
0.0310099
1.2149
0.0198129
1.44942
0.0124455
1.73323
0.00728652
2.0762
0.00338366
2.48915
-0.000206805
2.98588
-0.00379009
2.98588
-0.00766905
2.48912
-0.0127729
2.07614
-0.0200911
1.73318
-0.0311297
1.44926
-0.0472359
1.21462
-0.0690181
1.02055
-0.0952628
0.858548
-0.107082
0.705405
0.470906
0.112884
0.357964
0.135295
0.682734
0.120394
0.873381
0.097852
1.04332
0.0746269
1.23812
0.0528951
1.47115
0.034448
1.75168
0.0201864
2.09046
0.00884626
2.50049
-0.00131075
2.99604
-0.011413
2.99598
-0.0224988
2.50021
-0.0365342
2.09018
-0.0546451
1.75129
-0.0763172
1.47093
-0.0999665
1.23827
-0.123048
1.04363
-0.136803
0.872302
-0.113495
0.682098
0.357411
0.0920884
0.265876
0.125058
0.649764
0.121221
0.877218
0.104971
1.05957
0.0863501
1.25675
0.0672741
1.49022
0.0483615
1.77059
0.0303342
2.10848
0.0138628
2.51696
-0.0020098
3.01191
-0.017772
3.01174
-0.0340127
2.51645
-0.0516052
2.10777
-0.0700814
1.76977
-0.0885237
1.48937
-0.105898
1.25565
-0.12022
1.05795
-0.125333
0.877416
-0.0923709
0.649135
0.26504
0.0640156
0.20186
0.104879
0.608901
0.106667
0.87543
0.0952734
1.07096
0.0813508
1.27067
0.0666414
1.50493
0.0505789
1.78665
0.0334557
2.12561
0.015696
2.53472
-0.00309387
3.0307
-0.0215662
3.03021
-0.0387492
2.53363
-0.0551659
2.12418
-0.0704509
1.78505
-0.0842738
1.5032
-0.0979156
1.26929
-0.109653
1.06969
-0.106782
0.874545
-0.0647951
0.607148
0.200245
0.0375154
0.164345
0.0808363
0.56558
0.0912303
0.865036
0.0841143
1.07808
0.0715004
1.28328
0.0595939
1.51684
0.046636
1.79961
0.0317987
2.14044
0.015031
2.55149
-0.00397253
3.04971
-0.0227358
3.04898
-0.0387947
2.54969
-0.052726
2.13812
-0.0649219
1.79725
-0.076383
1.51466
-0.0884245
1.28133
-0.0948031
1.07607
-0.0830461
0.862788
-0.0383192
0.562422
0.161926
0.0195128
0.144832
0.0573345
0.527758
0.0727344
0.849636
0.0706562
1.08015
0.0619535
1.29198
0.0511522
1.52764
0.0399588
1.8108
0.0273542
2.15305
0.0122673
2.56657
-0.00538823
3.06736
-0.0225945
3.06618
-0.0367217
2.56382
-0.0483454
2.14974
-0.0585056
1.80741
-0.0683311
1.52448
-0.0759969
1.28899
-0.0768819
1.07695
-0.0598667
0.845773
-0.0203416
0.522896
0.141584
0.0106734
0.134159
0.0425388
0.495893
0.0588236
0.833351
0.0592202
1.07976
0.0531323
1.29807
0.0438431
1.53693
0.0334983
1.82115
0.0221538
2.16439
0.00907051
2.57966
-0.00672398
3.08316
-0.0221127
3.08157
-0.0342018
2.57591
-0.0441384
2.15968
-0.0530752
1.81635
-0.0610749
1.53248
-0.0657416
1.29366
-0.0638646
1.07507
-0.0456264
0.827535
-0.0116252
0.488895
0.129959
0.00663441
0.127524
0.0331066
0.469421
0.0494699
0.816988
0.0511052
1.07812
0.0461579
1.30302
0.0379158
1.54517
0.0283333
1.83073
0.0174651
2.17526
0.00539313
2.59173
-0.00851661
3.09707
-0.0219061
3.09496
-0.0326729
2.58667
-0.0419808
2.16898
-0.0497247
1.82409
-0.0562134
1.53897
-0.059391
1.29684
-0.055877
1.07156
-0.0369506
0.808608
-0.00779814
0.459743
0.122161
0.00473902
0.122785
0.0266869
0.447473
0.0425663
0.801108
0.0447329
1.07596
0.0402176
1.30754
0.0327524
1.55264
0.0238782
1.83961
0.0135544
2.18559
0.00196466
2.60332
-0.0108256
3.10986
-0.0227444
3.10688
-0.032625
2.59655
-0.0408688
2.17723
-0.047732
1.83095
-0.0532595
1.5445
-0.0557577
1.29934
-0.050953
1.06675
-0.0315688
0.789224
-0.00623995
0.434414
0.115921
0.00383592
0.118949
0.022013
0.429296
0.0374414
0.78568
0.0403309
1.07307
0.0359605
1.31191
0.0285682
1.56003
0.0198994
1.84827
0.010064
2.19542
-0.000897334
2.61428
-0.0129556
3.12191
-0.0243703
3.11829
-0.0335421
2.60573
-0.0409449
2.18463
-0.0469863
1.837
-0.0518764
1.54939
-0.0533586
1.30082
-0.0472308
1.06063
-0.0277067
0.7697
-0.00559616
0.412303
0.110325
0.00312319
0.115826
0.0177095
0.414709
0.0317929
0.771596
0.0349735
1.06989
0.0310919
1.31579
0.0241855
1.56694
0.0159003
1.85656
0.00623257
2.20509
-0.00485798
2.62537
-0.0168885
3.13394
-0.0274981
3.1289
-0.0356523
2.61388
-0.0422813
2.19126
-0.0476161
1.84233
-0.0515048
1.55328
-0.0518477
1.30116
-0.0444273
1.05321
-0.0248344
0.750107
-0.00528864
0.392758
0.105036
0.00241896
0.113407
0.0140559
0.403072
0.0269074
0.758745
0.0302609
1.06653
0.0264968
1.31955
0.0197393
1.57369
0.0115627
1.86474
0.00217031
2.21448
-0.00828334
2.63582
-0.0197629
3.14542
-0.0302843
3.13942
-0.0382989
2.6219
-0.0440197
2.19698
-0.0484274
1.84674
-0.0513418
1.55619
-0.050846
1.30067
-0.0420789
1.04444
-0.0226132
0.730641
-0.00508439
0.375229
0.0999515
0.00171229
0.111695
0.0105857
0.394199
0.0215935
0.747737
0.0246031
1.06352
0.0209874
1.32317
0.0143849
1.5803
0.00621801
1.8729
-0.00315049
2.22385
-0.0139453
2.64662
-0.0256027
3.15708
-0.0352975
3.14912
-0.0419044
2.6285
-0.0466625
2.20174
-0.0501533
1.85023
-0.0517436
1.55778
-0.0503497
1.29927
-0.0404884
1.03458
-0.0210647
0.711218
-0.00493108
0.359095
0.0950204
0.000935571
0.110759
0.00732603
0.387808
0.0166618
0.738401
0.0190634
1.06112
0.0149365
1.32729
0.00800745
1.58723
-0.000251663
1.88116
-0.00971442
2.23331
-0.0198071
2.65671
-0.0300737
3.16735
-0.0388029
3.15785
-0.0448812
2.63458
-0.0487979
2.20566
-0.0515887
1.85302
-0.0526137
1.55881
-0.050456
1.29712
-0.0394768
1.0236
-0.0199985
0.691739
-0.00484282
0.34394
0.0901776
0.000187337
0.110572
0.00422046
0.383775
0.0110624
0.731559
0.0123796
1.0598
0.00788702
1.33179
0.000619192
1.59449
-0.00803553
1.88982
-0.0174066
2.24268
-0.0275961
2.6669
-0.0381993
3.17795
-0.0459771
3.16563
-0.0502069
2.63881
-0.0528809
2.20833
-0.0547233
1.85486
-0.054823
1.55891
-0.051229
1.29352
-0.0391485
1.01152
-0.0194551
0.672046
-0.00484965
0.329334
0.0853279
-0.000784398
0.111356
0.000573003
0.382418
0.0055584
0.726574
0.00613012
1.05923
0.000881495
1.33704
-0.00726088
1.60264
-0.0165498
1.89911
-0.0264467
2.25258
-0.0364022
2.67686
-0.045684
3.18723
-0.0524527
3.1724
-0.0561013
2.64246
-0.0578163
2.21004
-0.0589177
1.85596
-0.0581689
1.55816
-0.0531402
1.28849
-0.0393648
0.997743
-0.0192142
0.651895
-0.00487531
0.314995
0.0804526
-0.0016278
0.112984
-0.00254205
0.383332
-0.000655348
0.724687
-0.00196311
1.06054
-0.00781999
1.34289
-0.016326
1.61114
-0.0262323
1.90901
-0.0367314
2.26308
-0.0473895
2.68751
-0.0571551
3.197
-0.0632772
3.17852
-0.0655092
2.64469
-0.0660041
2.21054
-0.0652441
1.8552
-0.0627389
1.55565
-0.0561258
1.28188
-0.0406566
0.982274
-0.0197524
0.630991
-0.00514561
0.300388
0.075307
-0.00295578
0.11594
-0.00624201
0.386618
-0.00777811
0.726223
-0.0103332
1.0631
-0.0171247
1.34968
-0.0267673
1.62078
-0.037535
1.91978
-0.0488931
2.27444
-0.0598773
2.6985
-0.0686647
3.20579
-0.0730768
3.18293
-0.0741367
2.64575
-0.0732317
2.20963
-0.0718593
1.85383
-0.0683938
1.55219
-0.0597236
1.27321
-0.0423639
0.964914
-0.0205341
0.609161
-0.00543483
0.285289
0.0698722
-0.00432915
0.120269
-0.0106267
0.392916
-0.0157049
0.731301
-0.0216674
1.06906
-0.0295596
1.35758
-0.0397156
1.63094
-0.0513263
1.93139
-0.0636875
2.2868
-0.0756128
2.71042
-0.0851023
3.21528
-0.0895563
3.18738
-0.0897661
2.64596
-0.0869892
2.20686
-0.0824715
1.84931
-0.0760497
1.54576
-0.0650005
1.26216
-0.0453768
0.94529
-0.0220167
0.585801
-0.00591887
0.269191
0.0639533
-0.00573175
0.126001
-0.0155184
0.402703
-0.0244785
0.740262
-0.0327668
1.07735
-0.0427901
1.3676
-0.0552466
1.6434
-0.068546
1.94469
-0.0820456
2.3003
-0.0942469
2.72262
-0.102549
3.22358
-0.104048
3.18888
-0.101156
2.64307
-0.0964962
2.2022
-0.091606
1.84442
-0.0845896
1.53875
-0.0711305
1.2487
-0.0488
0.92296
-0.0236363
0.560638
-0.00639963
0.251955
0.0575537
-0.00810928
0.13411
-0.0227779
0.417371
-0.0375432
0.755027
-0.0495989
1.0894
-0.0612927
1.37929
-0.0752579
1.65736
-0.0905254
1.95996
-0.10575
2.31552
-0.118554
2.73543
-0.126015
3.23104
-0.12614
3.18901
-0.122016
2.63894
-0.115874
2.19606
-0.107111
1.83566
-0.0958302
1.52747
-0.0788844
1.23175
-0.0532827
0.897358
-0.025799
0.533154
-0.00698457
0.23314
0.0505691
-0.0106689
0.144779
-0.030385
0.437087
-0.051093
0.775735
-0.0678211
1.10613
-0.0831026
1.39457
-0.100376
1.67464
-0.117759
1.97734
-0.13382
2.33158
-0.146064
2.74767
-0.151695
3.23667
-0.148717
3.18603
-0.140502
2.63073
-0.13023
2.18578
-0.120455
1.82588
-0.108153
1.51517
-0.0879165
1.21152
-0.0585686
0.86801
-0.0283363
0.502922
-0.0075771
0.212381
0.042992
-0.0153798
0.160159
-0.0425676
0.464275
-0.0699731
0.803141
-0.0918383
1.128
-0.110735
1.41347
-0.131067
1.69497
-0.150959
1.99723
-0.168752
2.34938
-0.181566
2.76049
-0.185714
3.24082
-0.17945
3.17977
-0.168401
2.61968
-0.156294
2.17368
-0.142042
1.81163
-0.124313
1.49744
-0.0993728
1.18658
-0.0654959
0.834133
-0.0315263
0.468952
-0.00819623
0.189051
0.0347958
-0.019586
0.179745
-0.0556244
0.500313
-0.0925377
0.840054
-0.121466
1.15692
-0.145819
1.43783
-0.170702
1.71985
-0.193034
2.01957
-0.210909
2.36725
-0.221558
2.77113
-0.222071
3.24133
-0.212296
3.16999
-0.197206
2.60459
-0.180231
2.1567
-0.163398
1.7948
-0.143422
1.47746
-0.113496
1.15665
-0.0737321
0.79437
-0.0349327
0.430153
-0.00872357
0.162842
0.0260722
-0.0326133
0.212358
-0.0816596
0.54936
-0.128376
0.886771
-0.164018
1.19256
-0.194277
1.46808
-0.222775
1.74835
-0.246092
2.04288
-0.263449
2.38461
-0.272307
2.77999
-0.268794
3.23782
-0.25271
3.15391
-0.232917
2.5848
-0.213626
2.13741
-0.192622
1.7738
-0.165947
1.45079
-0.129264
1.11997
-0.0829311
0.748037
-0.0385401
0.385762
-0.00909185
0.133394
0.0169804
-0.0472487
0.259607
-0.120851
0.622963
-0.18336
0.949279
-0.227019
1.23622
-0.262509
1.50357
-0.291692
1.77753
-0.312968
2.06416
-0.326265
2.39791
-0.328469
2.7822
-0.316739
3.22609
-0.295322
3.13249
-0.271201
2.56068
-0.245881
2.11209
-0.220572
1.74849
-0.189797
1.42001
-0.145605
1.07578
-0.0908496
0.693281
-0.0401113
0.335023
-0.00896692
0.102249
0.00801344
-0.0339627
0.29357
-0.0968345
0.685834
-0.154052
1.0065
-0.200596
1.28277
-0.242908
1.54589
-0.279955
1.81458
-0.314043
2.09825
-0.343945
2.42781
-0.365464
2.80371
-0.374213
3.23484
-0.363528
3.12181
-0.341714
2.53886
-0.315942
2.08632
-0.282021
1.71457
-0.235181
1.37317
-0.172444
1.01304
-0.0996693
0.620506
-0.0393692
0.274723
-0.00870593
0.071586
-0.000692488
-0.0126832
0.306253
-0.0474925
0.720644
-0.0887818
1.04779
-0.127424
1.32141
-0.165297
1.58376
-0.198513
1.84779
-0.229102
2.12884
-0.254407
2.45311
-0.270296
2.8196
-0.269905
3.23445
-0.253077
3.10498
-0.227901
2.51369
-0.195992
2.05441
-0.161472
1.68005
-0.123832
1.33553
-0.0796865
0.968894
-0.0369223
0.577742
-0.0115441
0.249345
-0.0024725
0.0625144
-0.00316499
0.000299539
0.305953
-0.024134
0.745077
-0.0534648
1.07712
-0.0832636
1.35121
-0.113926
1.61442
-0.143837
1.8777
-0.171103
2.1561
-0.193212
2.47522
-0.206643
2.83303
-0.205159
3.23296
-0.186073
3.08589
-0.156119
2.48373
-0.124501
2.02279
-0.0919096
1.64746
-0.0549029
1.29852
-0.0190795
0.93307
0.00316829
0.555494
0.00617124
0.246342
0.00193274
0.0667529
-0.00123225
0.000904343
0.305049
-0.0124169
0.758398
-0.0338805
1.09858
-0.05843
1.37576
-0.0839778
1.63997
-0.109054
1.90278
-0.132403
2.17945
-0.151052
2.49387
-0.160174
2.84216
-0.154871
3.22766
-0.13471
3.06573
-0.108363
2.45739
-0.0773676
1.9918
-0.0425212
1.61261
-0.0134281
1.26943
0.00808869
0.911554
0.0175053
0.546078
0.0128291
0.251018
0.00398938
0.0755926
0.00275714
0.00392835
0.301121
-0.00559209
0.767919
-0.0238167
1.1168
-0.0444252
1.39637
-0.0659336
1.66148
-0.087418
1.92426
-0.107651
2.19968
-0.123772
2.50999
-0.132213
2.8506
-0.128489
3.22393
-0.108535
3.04578
-0.0795184
2.42837
-0.0506288
1.96291
-0.023783
1.58576
0.00425211
1.2414
0.0233176
0.892488
0.02588
0.543515
0.016229
0.260669
0.00492815
0.0868934
0.00768529
0.00516795
0.295953
-0.000927033
0.774014
-0.0172662
1.13314
-0.0360704
1.41517
-0.0554118
1.68082
-0.0743496
1.9432
-0.0921855
2.21752
-0.106658
2.52447
-0.114133
2.85807
-0.108454
3.21826
-0.0898989
3.02722
-0.0688946
2.40736
-0.0419887
1.936
-0.0125609
1.55634
0.00956447
1.21927
0.0239641
0.878088
0.0253025
0.542177
0.015393
0.270579
0.00475604
0.0975304
0.0124413
0.00372826
0.292224
-0.000942878
0.778685
-0.0145172
1.14672
-0.0314839
1.43214
-0.0490235
1.69836
-0.0665655
1.96074
-0.0833668
2.23432
-0.0973163
2.53841
-0.105101
2.86586
-0.102147
3.2153
-0.0884046
3.01348
-0.0660411
2.385
-0.0404397
1.9104
-0.0166995
1.5326
0.00642546
1.19615
0.0207632
0.863751
0.0209161
0.542024
0.0127585
0.278736
0.00392135
0.106368
0.0163627
0.00250718
0.289717
-0.00136718
0.782559
-0.0138621
1.15921
-0.0293321
1.44761
-0.0459811
1.71501
-0.0625089
1.97727
-0.0783293
2.25014
-0.0915195
2.5516
-0.0990654
2.8734
-0.0976829
3.21392
-0.084356
3.00015
-0.0645581
2.3652
-0.0427724
1.88861
-0.0183955
1.50822
0.00157254
1.17618
0.01281
0.852513
0.0150359
0.539798
0.0087718
0.285001
0.00268835
0.112451
0.019051
0.000111589
0.289606
-0.00379314
0.786464
-0.0148023
1.17022
-0.0287726
1.46158
-0.044388
1.73062
-0.0602388
1.99312
-0.0757704
2.26567
-0.0896037
2.56544
-0.0993641
2.88316
-0.100666
3.21522
-0.0886569
2.98814
-0.0697294
2.34628
-0.0476057
1.86649
-0.0274649
1.48808
-0.00773199
1.15644
0.00509914
0.839682
0.00670141
0.538196
0.0045405
0.287161
0.00161333
0.115378
0.0206644
-0.000596889
0.290202
-0.00547857
0.791346
-0.0158014
1.18055
-0.0289974
1.47477
-0.0440361
1.74566
-0.0594121
2.0085
-0.0748313
2.28109
-0.0889802
2.57959
-0.0987006
2.89288
-0.0997594
3.21628
-0.090811
2.97919
-0.0739188
2.32938
-0.0555259
1.8481
-0.0336247
1.46618
-0.0170437
1.13986
-0.00620809
0.828846
-0.000606681
0.532594
-0.000525837
0.287081
4.14799e-05
0.114811
0.0207058
-0.00207263
0.292275
-0.0075635
0.796837
-0.0173601
1.19034
-0.0297413
1.48716
-0.0439884
1.75991
-0.0590373
2.02355
-0.0745704
2.29663
-0.0893002
2.59432
-0.101189
2.90477
-0.106459
3.22155
-0.0989476
2.97168
-0.0829052
2.31334
-0.0615062
1.8267
-0.0433467
1.44802
-0.0255495
1.12207
-0.0127395
0.816036
-0.00686191
0.526717
-0.00300729
0.283226
-0.000718825
0.112522
0.019987
-0.00346108
0.295736
-0.00898961
0.802365
-0.0184361
1.19979
-0.0304344
1.49915
-0.0443193
1.77379
-0.0590759
2.0383
-0.0746099
2.31216
-0.089952
2.60966
-0.102786
2.91761
-0.108409
3.22717
-0.102561
2.96583
-0.0888146
2.2996
-0.0713003
1.80918
-0.0500949
1.42681
-0.0333401
1.10531
-0.0207346
0.803431
-0.011331
0.517313
-0.00567085
0.277566
-0.00145043
0.108302
0.0185366
-0.00416219
0.299898
-0.0103263
0.808529
-0.0196658
1.20913
-0.0311673
1.51066
-0.0444329
1.78706
-0.0588782
2.05275
-0.074592
2.32787
-0.0906844
2.62575
-0.105278
2.9322
-0.114926
3.23682
-0.112476
2.96338
-0.0981733
2.28529
-0.0765959
1.7876
-0.0578187
1.40803
-0.0393215
1.08681
-0.024825
0.788934
-0.0154265
0.507915
-0.00672373
0.268863
-0.00174118
0.103319
0.0167954
-0.00434212
0.30424
-0.0109741
0.815161
-0.0202277
1.21838
-0.0314746
1.5219
-0.0444936
1.80008
-0.0587267
2.06698
-0.0744828
2.34363
-0.0911177
2.64239
-0.106889
2.94797
-0.118166
3.2481
-0.117098
2.96232
-0.104166
2.27236
-0.0867023
1.77014
-0.0632561
1.38459
-0.0446111
1.06817
-0.0296405
0.773964
-0.0166062
0.494881
-0.00753044
0.259787
-0.00175817
0.0975472
0.0150372
-0.00440393
0.308644
-0.0115306
0.822288
-0.0207661
1.22762
-0.0316624
1.5328
-0.0442154
1.81263
-0.0581801
2.08095
-0.0740279
2.35948
-0.0912415
2.6596
-0.108611
2.96534
-0.122884
3.26237
-0.125165
2.9646
-0.11405
2.26125
-0.0918387
1.74793
-0.0698399
1.36259
-0.0472986
1.04563
-0.029839
0.756504
-0.0174922
0.482534
-0.00687372
0.249169
-0.00143569
0.0921092
0.0136015
-0.00445061
0.313095
-0.0116949
0.829532
-0.0207118
1.23663
-0.0313734
1.54346
-0.0437321
1.82499
-0.0575109
2.09473
-0.0733268
2.37529
-0.0909392
2.67721
-0.109315
2.98372
-0.125175
3.27823
-0.130166
2.96959
-0.120596
2.25168
-0.10284
1.73017
-0.0752959
1.33505
-0.0498831
1.02022
-0.0289277
0.735549
-0.0128156
0.466422
-0.0043203
0.240674
-0.000339955
0.0881288
0.0132616
-0.00450867
0.317604
-0.011829
0.836853
-0.0206691
1.24547
-0.0309899
1.55378
-0.042913
1.83691
-0.0563996
2.10821
-0.0721944
2.39109
-0.0901932
2.69521
-0.109711
3.00323
-0.127928
3.29645
-0.136606
2.97827
-0.129968
2.24504
-0.108493
1.7087
-0.0821223
1.30867
-0.0499046
0.987998
-0.0229805
0.708625
-0.00556269
0.449004
0.00117332
0.233937
-0.0017201
0.0910222
0.0115415
-0.00451006
0.322114
-0.0116983
0.844041
-0.0201948
1.25397
-0.0302025
1.56379
-0.0418679
1.84858
-0.0551345
2.12148
-0.0708242
2.40678
-0.0890497
2.71344
-0.109257
3.02344
-0.128978
3.31617
-0.140401
2.98969
-0.136692
2.24133
-0.121165
1.69317
-0.0896434
1.27715
-0.0520858
0.95044
-0.0127679
0.669307
0.0207776
0.415458
0.0345556
0.220159
0.0247867
0.100791
0.0363282
-0.00442228
0.326536
-0.0115115
0.85113
-0.019772
1.26223
-0.0293915
1.57341
-0.0405841
1.85977
-0.0535137
2.13441
-0.0690647
2.42233
-0.0874083
2.73178
-0.108296
3.04433
-0.129813
3.33769
-0.143666
3.00354
-0.145087
2.24275
-0.127955
1.67604
-0.0991553
1.24835
-0.0534518
0.904737
-0.00525496
0.62111
0.0399301
0.370273
0.0450921
0.214998
0.0197692
0.126114
0.0560974
-0.00425513
0.330791
-0.0111401
0.858015
-0.0190229
1.27011
-0.028258
1.58264
-0.0391668
1.87068
-0.0518274
2.14707
-0.0671661
2.43767
-0.0855158
2.75013
-0.106861
3.06568
-0.129816
3.36064
-0.146433
3.02016
-0.151073
2.24739
-0.142607
1.66757
-0.112491
1.21824
-0.065403
0.857649
0.00787736
0.54783
0.108365
0.269786
0.188613
0.13475
0.180773
0.133954
0.236871
-0.00411749
0.334909
-0.0109328
0.86483
-0.0187942
1.27798
-0.0279877
1.59184
-0.0389714
1.88166
-0.0520192
2.16012
-0.0682349
2.45388
-0.088132
2.77003
-0.11212
3.08966
-0.139255
3.38778
-0.161173
3.04208
-0.172455
2.25867
-0.165362
1.66048
-0.140752
1.19363
-0.0881011
0.804998
-0.0334127
0.493141
-0.0775668
0.31394
-0.35889
0.416073
-0.939665
0.714728
0.899274
-1.60207
-0.00393545
0.338844
-0.0105543
0.871449
-0.0181375
1.28556
-0.027146
1.60085
-0.0380703
1.89259
-0.0512505
2.1733
-0.0678641
2.4705
-0.0886767
2.79084
-0.114467
3.11545
-0.145196
3.4185
-0.17291
3.06979
-0.188954
2.27472
-0.199149
1.67068
-0.186223
1.1807
-0.16392
0.782696
-0.25245
0.58167
-0.692987
0.754477
-1.43741
1.1605
-2.04623
1.32355
1.21736
-2.36432
-0.00372485
0.342569
-0.0101049
0.877829
-0.0175061
1.29296
-0.0263045
1.60964
-0.0370168
1.9033
-0.0502099
2.18649
-0.0671712
2.48746
-0.0888308
2.8125
-0.116374
3.143
-0.150398
3.45253
-0.183531
3.10293
-0.210697
2.30188
-0.223286
1.68327
-0.218058
1.17547
-0.304922
0.86956
-0.753502
1.03025
-1.53858
1.53955
-2.10718
1.7291
-2.34718
1.56355
1.33192
-2.46175
-0.00354419
0.346113
-0.00958384
0.883869
-0.0166275
1.3
-0.0251778
1.61819
-0.0357584
1.91388
-0.0490127
2.19975
-0.0662719
2.50472
-0.0887181
2.83495
-0.117981
3.17226
-0.156034
3.49058
-0.195916
3.14281
-0.227155
2.33312
-0.258151
1.71426
-0.342065
1.25938
-0.689671
1.21717
-1.43362
1.7742
-2.02477
2.13071
-2.26504
1.96936
-2.37857
1.67708
1.39655
-2.4432
-0.00327377
0.349387
-0.00895159
0.889547
-0.0157288
1.30678
-0.0240071
1.62647
-0.0343877
1.92426
-0.0475803
2.21294
-0.0650469
2.52218
-0.0881648
2.85806
-0.119029
3.20312
-0.16025
3.5318
-0.206565
3.18912
-0.253446
2.38
-0.299088
1.7599
-0.479687
1.43998
-1.092
1.82948
-1.78464
2.46684
-2.10709
2.45316
-2.25585
2.11813
-2.33808
1.75931
1.46232
-2.40386
-0.00321275
0.3526
-0.00878982
0.895124
-0.0154596
1.31345
-0.0237548
1.63477
-0.0344088
1.93492
-0.0479329
2.22646
-0.0659227
2.54017
-0.0899806
2.88212
-0.122622
3.23576
-0.16796
3.57714
-0.221461
3.24262
-0.268774
2.42731
-0.360369
1.8515
-0.750092
1.82971
-1.48773
2.56712
-1.96266
2.94177
-2.16276
2.65326
-2.26914
2.22451
-2.34617
1.83634
1.52599
-2.40983
-0.00329744
0.355897
-0.00912049
0.900947
-0.0162238
1.32055
-0.0249555
1.6435
-0.0360565
1.94602
-0.0501758
2.24058
-0.0690101
2.55901
-0.0943001
2.90741
-0.128912
3.27038
-0.177491
3.62572
-0.234816
3.29995
-0.300788
2.49329
-0.490866
2.04158
-1.04576
2.3846
-1.67614
3.1975
-1.95327
3.2189
-2.10046
2.80044
-2.21438
2.33844
-2.3079
1.92986
1.58776
-2.36968
-0.00335939
0.359257
-0.00949678
0.907084
-0.0169025
1.32796
-0.0260843
1.65268
-0.0377542
1.95769
-0.0525898
2.25542
-0.0723452
2.57876
-0.0989337
2.934
-0.135439
3.30688
-0.188032
3.67831
-0.252106
3.36402
-0.339431
2.58061
-0.620845
2.32299
-1.26246
3.02622
-1.75243
3.68746
-1.95976
3.42623
-2.1001
2.94079
-2.22395
2.46229
-2.33467
2.04058
1.6464
-2.39332
-0.00333405
0.362591
-0.00971898
0.913469
-0.017705
1.33595
-0.0274347
1.66241
-0.0395937
1.96985
-0.0550686
2.27089
-0.0757203
2.59942
-0.103575
2.96185
-0.142046
3.34535
-0.197014
3.73328
-0.264907
3.43192
-0.391275
2.70698
-0.776402
2.70812
-1.40843
3.65825
-1.763
4.04203
-1.9363
3.59953
-2.03849
3.04298
-2.12731
2.5511
-2.19494
2.10821
1.63933
-2.18786
-0.00327432
0.365865
-0.00998196
0.920177
-0.0182712
1.34423
-0.0285008
1.67264
-0.0413316
1.98268
-0.0575937
2.28715
-0.0792206
2.62104
-0.108385
2.99102
-0.1486
3.38557
-0.206035
3.79071
-0.285911
3.51179
-0.455832
2.8769
-0.906225
3.15851
-1.46172
4.21374
-1.72426
4.30457
-1.87666
3.75193
-1.97017
3.13648
-1.9721
2.55304
-1.90383
2.03994
1.60535
-1.86985
-0.00307671
0.368942
-0.0099204
0.927021
-0.0188335
1.35315
-0.0295794
1.68339
-0.0427813
1.99588
-0.0594314
2.3038
-0.0814541
2.64307
-0.11097
3.02054
-0.151654
3.42625
-0.207943
3.847
-0.293397
3.59725
-0.49879
3.08229
-0.98682
3.64654
-1.42848
4.6554
-1.59486
4.47095
-1.6625
3.81958
-1.66726
3.14124
-1.52003
2.40581
-1.02007
1.53998
0.585277
-0.00261394
0.371556
-0.00987625
0.934283
-0.0190473
1.36232
-0.0304229
1.69476
-0.0447001
2.01016
-0.0627348
2.32184
-0.0866711
2.667
-0.118922
3.05279
-0.163471
3.4708
-0.226742
3.91027
-0.330858
3.70136
-0.58505
3.33649
-1.12187
4.18336
-1.48165
5.01518
-1.58157
4.57087
-1.5796
3.81761
-1.47668
3.03833
-1.23737
2.1665
-0.634575
0.937182
-0.0492976
-0.00212583
0.373681
-0.00917887
0.941336
-0.0190461
1.37219
-0.0312215
1.70694
-0.0463322
2.02527
-0.0656114
2.34112
-0.0913696
2.69276
-0.126227
3.08764
-0.175106
3.51968
-0.244388
3.97956
-0.366516
3.82349
-0.680422
3.65039
-1.23905
4.74199
-1.50189
5.27802
-1.56111
4.6301
-1.53973
3.79622
-1.33747
2.83607
-0.786163
1.61518
-0.110255
0.261274
-0.159552
-0.00162416
0.375306
-0.00856131
0.948273
-0.0183633
1.38199
-0.0310775
1.71965
-0.0471952
2.04138
-0.0678054
2.36173
-0.095489
2.72044
-0.133236
3.12539
-0.185675
3.57212
-0.263256
4.05714
-0.412437
3.97267
-0.78341
4.02136
-1.31813
5.27671
-1.49592
5.45581
-1.52725
4.66142
-1.43925
3.70822
-1.10494
2.50176
-0.316107
0.826355
0.0257778
-0.0806109
-0.133774
-0.000568535
0.375874
-0.00659041
0.954295
-0.0169924
1.39239
-0.0304943
1.73315
-0.0472748
2.05816
-0.0690637
2.38352
-0.0984802
2.74986
-0.138504
3.16542
-0.193897
3.62751
-0.280122
4.14336
-0.454067
4.14661
-0.889
4.4563
-1.36171
5.74942
-1.47958
5.57368
-1.48252
4.66437
-1.26142
3.48712
-0.691897
1.93224
-0.0631309
0.197589
0.0311545
-0.174896
-0.10262
0.000535228
0.375339
-0.00447365
0.959304
-0.0145047
1.40242
-0.0283914
1.74704
-0.0458742
2.07565
-0.0687934
2.40644
-0.0998352
2.7809
-0.142246
3.20783
-0.200527
3.68579
-0.295719
4.23855
-0.497909
4.3488
-0.982216
4.9406
-1.35864
6.12584
-1.42316
5.6382
-1.37923
4.62044
-1.08998
3.19787
-0.327393
1.16965
0.00386992
-0.133675
0.0148854
-0.185912
-0.0877344
0.00316379
0.372175
0.00032222
0.962145
-0.010513
1.41326
-0.0250264
1.76155
-0.0426919
2.09331
-0.0666361
2.43038
-0.0989763
2.81324
-0.142888
3.25174
-0.203858
3.74676
-0.307294
4.34199
-0.532619
4.57413
-1.04145
5.44944
-1.31904
6.40343
-1.36083
5.67999
-1.22461
4.48423
-0.780205
2.75346
-0.0747888
0.464233
0.0458118
-0.254275
0.0254662
-0.165566
-0.0622682
0.00495426
0.367221
0.0035086
0.963591
-0.00549965
1.42226
-0.0191965
1.77525
-0.0371186
2.11123
-0.0616756
2.45494
-0.0948464
2.84641
-0.140364
3.29726
-0.203675
3.81007
-0.314551
4.45287
-0.570852
4.83043
-1.06325
5.94183
-1.25569
6.59587
-1.26672
5.69102
-1.05086
4.26837
-0.465556
2.16815
-0.0122548
0.0109317
-0.000715629
-0.265815
0.00878758
-0.175069
-0.0534807
0.0084311
0.35879
0.00979856
0.962224
0.00262396
1.42944
-0.0104364
1.78831
-0.0283127
2.12911
-0.0532136
2.47984
-0.0867069
2.87991
-0.132084
3.34263
-0.196659
3.87465
-0.313831
4.57004
-0.588264
5.10487
-1.03829
6.39186
-1.16061
6.71819
-1.14844
5.67885
-0.894176
4.0141
-0.269559
1.54354
-0.0675932
-0.191034
-0.0362733
-0.297135
-0.0121061
-0.199237
-0.0655868
0.0118705
0.346919
0.0172191
0.956875
0.012987
1.43367
0.00234609
1.79895
-0.0161013
2.14756
-0.0400175
2.50375
-0.0726853
2.91257
-0.118081
3.38803
-0.183043
3.93961
-0.303043
4.69004
-0.586002
5.38782
-0.971363
6.77723
-1.04213
6.78895
-0.974088
5.6108
-0.689612
3.72962
-0.095205
0.94913
-0.0179163
-0.268323
-0.0208551
-0.294196
-0.00833124
-0.21176
-0.073918
0.0180596
0.32886
0.029378
0.945557
0.0279801
1.43507
0.01807
1.80886
0.0017105
2.16392
-0.0203383
2.5258
-0.0516676
2.9439
-0.094841
3.4312
-0.157313
4.00208
-0.276803
4.80953
-0.544715
5.65574
-0.856194
7.0887
-0.889485
6.82225
-0.793704
5.51502
-0.460459
3.39638
0.0366265
0.452044
0.052112
-0.283808
0.0341234
-0.276207
0.0118829
-0.18952
-0.062035
0.0243731
0.304487
0.0430223
0.926907
0.0470512
1.43104
0.0403364
1.81558
0.0274709
2.17678
0.00707405
2.5462
-0.0215006
2.97248
-0.0614836
3.47118
-0.12035
4.06095
-0.232064
4.92124
-0.466433
5.89011
-0.692973
7.31524
-0.732499
6.86177
-0.616672
5.3992
-0.289584
3.06929
0.00998911
0.15247
0.0250707
-0.29889
0.032385
-0.283521
0.0173233
-0.174458
-0.0447117
0.0341135
0.270373
0.0633298
0.897691
0.0738506
1.42052
0.0715938
1.81783
0.0626844
2.18569
0.0453265
2.56356
0.0202576
2.99755
-0.015161
3.5066
-0.0659593
4.11175
-0.160266
5.01555
-0.342397
6.07224
-0.493497
7.46634
-0.537812
6.90609
-0.454038
5.31542
-0.141453
2.75671
-0.0227406
0.0337577
-0.00985669
-0.311774
0.0239613
-0.317339
0.0329449
-0.183442
-0.0117668
0.0436908
0.226682
0.0859869
0.855395
0.106668
1.39984
0.111233
1.81327
0.106877
2.19005
0.0940815
2.57635
0.0757292
3.0159
0.0481165
3.53422
0.0016275
4.15824
-0.0614232
5.0786
-0.185736
6.19655
-0.26671
7.54732
-0.289841
6.92922
-0.26972
5.2953
-0.102425
2.58941
-0.174228
0.105561
-0.14666
-0.339342
-0.0574739
-0.406526
0.0229246
-0.263841
0.0111578
0.0556524
0.17103
0.116134
0.794914
0.151004
1.36497
0.163726
1.80055
0.166073
2.1877
0.159102
2.58332
0.147898
3.0271
0.130781
3.55133
0.106108
4.18291
0.0700995
5.11461
0.0448814
6.22177
0.0125917
7.57961
-0.0468365
6.98865
-0.198398
5.44686
-0.357452
2.74847
-0.608525
0.356634
-0.593231
-0.354636
-0.420104
-0.579653
-0.187271
-0.496674
-0.176113
0.0590376
0.111992
0.146054
0.707898
0.201242
1.30978
0.227771
1.77402
0.238949
2.17652
0.239285
2.58299
0.237083
3.02931
0.232281
3.55613
0.227347
4.18784
0.225478
5.11648
0.309954
6.13729
0.396795
7.49277
0.355175
7.03027
0.19234
5.6097
-0.234024
3.17483
-0.711684
0.834293
-0.817511
-0.248809
-0.631186
-0.765978
-0.338566
-0.789294
-0.514679
0.0510205
0.0609716
0.176434
0.582485
0.265568
1.22065
0.308551
1.73103
0.33048
2.1546
0.341826
2.57164
0.348542
3.02259
0.359606
3.54507
0.381598
4.16585
0.42722
5.07085
0.639344
5.92517
0.922134
7.20998
1.12955
6.82285
1.26021
5.47904
0.852011
3.58304
0.182916
1.50339
-0.286132
0.220238
-0.467446
-0.584664
-0.290039
-0.966701
-0.804718
0.0361718
0.0247999
0.208812
0.409845
0.329649
1.09981
0.403235
1.65745
0.441473
2.11636
0.464804
2.54831
0.479665
3.00773
0.505027
3.51971
0.553512
4.11737
0.661354
4.96301
1.01124
5.57528
1.61385
6.60737
2.02192
6.41478
2.31098
5.18997
2.15821
3.7358
1.54217
2.11943
0.967068
0.795338
0.389491
-0.0070867
0.104201
-0.68141
-0.700517
0.0314281
-0.00662819
0.229953
0.21132
0.41783
0.911932
0.519907
1.55537
0.573018
2.06325
0.610798
2.51053
0.637813
2.98071
0.674335
3.48319
0.750111
4.04159
0.905276
4.80785
1.33241
5.14815
2.10744
5.83233
2.51379
6.00843
2.71341
4.99036
2.62033
3.82889
2.1267
2.61305
1.53525
1.38679
1.03546
0.492704
0.426298
-0.0722454
-0.274219
0.0283341
-0.0349623
0.178183
0.0614715
0.469119
0.620995
0.64501
1.37948
0.729033
1.97922
0.777103
2.46246
0.817137
2.94068
0.856182
3.44414
0.932728
3.96505
1.08136
4.65921
1.40883
4.82068
2.14214
5.09902
2.50167
5.6489
2.65389
4.83813
2.57371
3.90907
2.20795
2.97882
1.60963
1.9851
0.990228
1.11211
0.413686
0.504297
0.139467
0.0103064
-0.0452687
0.0934244
-0.0216465
0.404819
0.309601
0.646319
1.13798
0.763507
1.86204
0.797766
2.4282
0.80775
2.9307
0.797624
3.45427
0.793356
3.96931
0.833072
4.6195
0.926881
4.72687
1.26779
4.75812
1.47567
5.44103
1.4795
4.8343
1.40424
3.98433
1.22309
3.15997
0.90627
2.30192
0.561934
1.45645
0.23591
0.830321
0.375377
-0.00361314
-0.0416556
0.0347218
-0.0599814
0.235513
0.10881
0.483337
0.890154
0.610716
1.73466
0.656331
2.38259
0.6736
2.91343
0.669872
3.458
0.654254
3.98493
0.657871
4.61588
0.699325
4.68542
0.90245
4.55499
1.11424
5.22924
1.11204
4.8365
1.0439
4.05246
0.910229
3.29365
0.688115
2.52403
0.421594
1.72297
0.169014
1.0829
0.544392
0.00514589
-0.0468014
0.0370326
-0.0918681
0.133754
0.0120883
0.348861
0.675048
0.467346
1.61617
0.51286
2.33707
0.527798
2.89849
0.531216
3.45458
0.521703
3.99444
0.513345
4.62424
0.525808
4.67295
0.651669
4.42913
0.807812
5.07309
0.806254
4.83806
0.736824
4.12189
0.629007
3.40146
0.47273
2.68031
0.279703
1.91599
0.102151
1.26045
0.646542
0.0249724
-0.0717739
0.0719638
-0.138859
0.119677
-0.0356251
0.246594
0.548131
0.33628
1.52649
0.377083
2.29627
0.390495
2.88508
0.398818
3.44625
0.397894
3.99537
0.391049
4.63109
0.387711
4.67629
0.457452
4.35939
0.566256
4.96429
0.563007
4.84131
0.501323
4.18358
0.419289
3.4835
0.310504
2.78909
0.177414
2.04908
0.0540912
1.38378
0.700633
0.0443326
-0.116107
0.092053
-0.18658
0.0962762
-0.0398483
0.11712
0.527287
0.177775
1.46583
0.22051
2.25353
0.24458
2.86101