/*--------------------------------*- C++ -*----------------------------------*\
| =========                 |                                                 |
| \\      /  F ield         | OpenFOAM: The Open Source CFD Toolbox           |
|  \\    /   O peration     | Version:  v2012                                 |
|   \\  /    A nd           | Website:  www.openfoam.com                      |
|    \\/     M anipulation  |                                                 |
\*---------------------------------------------------------------------------*/
FoamFile
{
    version     2.0;
    format      ascii;
    class       volVectorField;
    location    "47";
    object      U;
}
// * * * * * * * * * * * * * * * * * * * * * * * * * * * * * * * * * * * * * //

dimensions      [0 1 -1 0 0 0 0];


internalField   nonuniform List<vector> 
2200
(
(0.878834 -0.0304144 0)
(1.00578 -0.0512816 0)
(1.00327 -0.0354077 0)
(1.00023 -0.0244448 0)
(0.999836 -0.0166734 0)
(1.00002 -0.010733 0)
(1.00002 -0.00686649 0)
(1.00002 -0.00423483 0)
(1.00001 -0.0022691 0)
(1.00017 -0.000734117 0)
(1.00004 0.000913031 0)
(0.999971 0.00244306 0)
(0.999992 0.00439727 0)
(1.00007 0.00699585 0)
(1.00011 0.0108525 0)
(0.999937 0.0166674 0)
(1.00028 0.0244085 0)
(1.00348 0.0349705 0)
(1.00595 0.0513631 0)
(0.879006 0.0303216 0)
(0.712013 -0.0327641 0)
(0.996632 -0.0630228 0)
(1.03331 -0.0561518 0)
(1.02494 -0.046426 0)
(1.01594 -0.0361209 0)
(1.00967 -0.0264079 0)
(1.00591 -0.0181365 0)
(1.00374 -0.0114218 0)
(1.00255 -0.00603326 0)
(1.00202 -0.00151539 0)
(1.00204 0.00266537 0)
(1.00255 0.00712351 0)
(1.0037 0.0123741 0)
(1.00582 0.0189926 0)
(1.00944 0.0270965 0)
(1.01558 0.0368607 0)
(1.02466 0.0472945 0)
(1.03311 0.057701 0)
(0.996673 0.0631513 0)
(0.711802 0.0329987 0)
(0.535482 -0.0239014 0)
(0.969873 -0.056956 0)
(1.05642 -0.0547724 0)
(1.05219 -0.0488062 0)
(1.03615 -0.0404784 0)
(1.02439 -0.0323293 0)
(1.01588 -0.0240925 0)
(1.01037 -0.016199 0)
(1.00717 -0.0089436 0)
(1.00561 -0.00232387 0)
(1.00548 0.00402574 0)
(1.00693 0.010597 0)
(1.01013 0.0177068 0)
(1.01549 0.0253573 0)
(1.02411 0.0334213 0)
(1.03615 0.0413777 0)
(1.05219 0.0494116 0)
(1.05634 0.0535762 0)
(0.969221 0.0576022 0)
(0.534406 0.0239355 0)
(0.392218 -0.0136527 0)
(0.911753 -0.0464065 0)
(1.05745 -0.0469225 0)
(1.06956 -0.0443211 0)
(1.05489 -0.038188 0)
(1.0393 -0.0315175 0)
(1.02752 -0.0247411 0)
(1.01905 -0.0175547 0)
(1.01368 -0.010072 0)
(1.01108 -0.00246401 0)
(1.01105 0.00509 0)
(1.01352 0.0124833 0)
(1.01856 0.0196888 0)
(1.02685 0.026579 0)
(1.03844 0.0329807 0)
(1.05389 0.0393898 0)
(1.06822 0.0454558 0)
(1.05567 0.0481708 0)
(0.910053 0.0469176 0)
(0.390086 0.0137618 0)
(0.307544 -0.00451881 0)
(0.846568 -0.0324091 0)
(1.04932 -0.0399915 0)
(1.07943 -0.0383145 0)
(1.06813 -0.0336668 0)
(1.05163 -0.028016 0)
(1.03827 -0.0226346 0)
(1.0281 -0.0166053 0)
(1.02109 -0.00976597 0)
(1.01719 -0.00221201 0)
(1.01684 0.00559704 0)
(1.02033 0.0129765 0)
(1.02718 0.0194292 0)
(1.03716 0.0250987 0)
(1.05036 0.0301526 0)
(1.06686 0.0355671 0)
(1.07794 0.039939 0)
(1.04739 0.0415779 0)
(0.8432 0.0329238 0)
(0.304045 0.00470928 0)
(0.264064 9.35301e-05 0)
(0.788731 -0.0201155 0)
(1.03309 -0.0315294 0)
(1.08339 -0.0320905 0)
(1.07728 -0.0288413 0)
(1.06081 -0.0240069 0)
(1.04709 -0.0195146 0)
(1.03621 -0.0144243 0)
(1.0284 -0.00837289 0)
(1.02402 -0.00137785 0)
(1.02386 0.00599281 0)
(1.0277 0.012619 0)
(1.03488 0.0182621 0)
(1.04536 0.0229429 0)
(1.05883 0.026955 0)
(1.07498 0.0313306 0)
(1.08047 0.0340942 0)
(1.02938 0.033197 0)
(0.783063 0.0207092 0)
(0.259195 0.000104306 0)
(0.240038 0.0010583 0)
(0.738001 -0.0123268 0)
(1.01365 -0.0251167 0)
(1.08399 -0.0269611 0)
(1.08282 -0.0246856 0)
(1.06768 -0.0205932 0)
(1.0542 -0.0166169 0)
(1.04334 -0.0120953 0)
(1.03522 -0.00673055 0)
(1.03027 -0.000462713 0)
(1.0296 0.00623757 0)
(1.03363 0.0121571 0)
(1.04134 0.0169824 0)
(1.0518 0.0208951 0)
(1.06496 0.0243378 0)
(1.0798 0.0278247 0)
(1.08036 0.0294628 0)
(1.00807 0.0270216 0)
(0.729635 0.0130718 0)
(0.23366 -0.000858114 0)
(0.225598 0.000946046 0)
(0.694789 -0.00808278 0)
(0.992335 -0.0208295 0)
(1.08177 -0.023249 0)
(1.08671 -0.0214693 0)
(1.07325 -0.0179633 0)
(1.05981 -0.0141876 0)
(1.04923 -0.00988934 0)
(1.04127 -0.00497301 0)
(1.03645 0.000696379 0)
(1.03596 0.00664252 0)
(1.03968 0.0119291 0)
(1.04644 0.0161664 0)
(1.05636 0.0197295 0)
(1.06944 0.02271 0)
(1.08208 0.0254544 0)
(1.07584 0.0264641 0)
(0.983825 0.0232022 0)
(0.682873 0.00904432 0)
(0.217389 -0.00073118 0)
(0.216005 0.000624155 0)
(0.659556 -0.00570752 0)
(0.972417 -0.0176995 0)
(1.0793 -0.02031 0)
(1.08983 -0.0187628 0)
(1.07787 -0.0157032 0)
(1.06461 -0.0121288 0)
(1.05421 -0.00808085 0)
(1.04638 -0.0032921 0)
(1.04138 0.00198635 0)
(1.04038 0.00733794 0)
(1.04375 0.0120006 0)
(1.05073 0.0158873 0)
(1.06021 0.0190257 0)
(1.07289 0.0217989 0)
(1.08393 0.0240086 0)
(1.07184 0.0246251 0)
(0.960514 0.0207159 0)
(0.643317 0.00695265 0)
(0.205506 -0.000359188 0)
(0.208614 0.000278379 0)
(0.630325 -0.00427869 0)
(0.952536 -0.0152343 0)
(1.07567 -0.0182415 0)
(1.09295 -0.0169524 0)
(1.08256 -0.0139583 0)
(1.06911 -0.0104015 0)
(1.05865 -0.00636582 0)
(1.05087 -0.00186897 0)
(1.04595 0.00305195 0)
(1.04485 0.00806491 0)
(1.04767 0.0125074 0)
(1.05357 0.016051 0)
(1.06297 0.018948 0)
(1.07579 0.0213389 0)
(1.08485 0.0232726 0)
(1.06442 0.0232573 0)
(0.935703 0.0187298 0)
(0.608784 0.00576643 0)
(0.195308 1.17615e-05 0)
(0.202761 6.89651e-05 0)
(0.607208 -0.00321184 0)
(0.935103 -0.0126598 0)
(1.07288 -0.0158042 0)
(1.09624 -0.0147295 0)
(1.08713 -0.0121216 0)
(1.07356 -0.0086116 0)
(1.06289 -0.00476403 0)
(1.05491 -0.000146777 0)
(1.04978 0.00482818 0)
(1.04834 0.0096483 0)
(1.05098 0.0135714 0)
(1.05719 0.016782 0)
(1.06625 0.0193972 0)
(1.07868 0.0216411 0)
(1.08562 0.022758 0)
(1.05881 0.0223541 0)
(0.913162 0.0171013 0)
(0.579478 0.00504874 0)
(0.1861 0.000289212 0)
(0.197978 5.26637e-06 0)
(0.588505 -0.00233144 0)
(0.918787 -0.0104194 0)
(1.06924 -0.0136993 0)
(1.09934 -0.0127802 0)
(1.09194 -0.0101331 0)
(1.07827 -0.00680126 0)
(1.06727 -0.0029062 0)
(1.05905 0.00145815 0)
(1.05358 0.0061798 0)
(1.05145 0.0107551 0)
(1.05335 0.0148109 0)
(1.05893 0.0178347 0)
(1.06822 0.0199801 0)
(1.08071 0.021764 0)
(1.08546 0.022662 0)
(1.04924 0.0215777 0)
(0.888571 0.0156846 0)
(0.552528 0.00460568 0)
(0.177065 0.000453784 0)
(0.194407 2.03459e-05 0)
(0.573759 -0.00157119 0)
(0.904435 -0.00814808 0)
(1.06645 -0.0112552 0)
(1.1026 -0.0103311 0)
(1.09648 -0.00787243 0)
(1.08282 -0.00440404 0)
(1.07147 -0.000673889 0)
(1.0626 0.00376545 0)
(1.05645 0.00868121 0)
(1.05432 0.0132591 0)
(1.05641 0.0167054 0)
(1.06203 0.0191469 0)
(1.07099 0.0210059 0)
(1.08253 0.0222372 0)
(1.08483 0.0226838 0)
(1.0416 0.0210484 0)
(0.866694 0.014635 0)
(0.529148 0.00434781 0)
(0.168625 0.000533372 0)
(0.192171 3.33124e-05 0)
(0.563089 -0.000830724 0)
(0.892547 -0.00608576 0)
(1.06352 -0.00894922 0)
(1.10578 -0.0078323 0)
(1.10137 -0.00506875 0)
(1.08768 -0.00166129 0)
(1.07607 0.00221661 0)
(1.06691 0.00648909 0)
(1.06018 0.0109116 0)
(1.05674 0.0148478 0)
(1.0579 0.018148 0)
(1.06318 0.0203533 0)
(1.07215 0.0217415 0)
(1.08318 0.0227177 0)
(1.08313 0.022933 0)
(1.02959 0.0208091 0)
(0.841884 0.0138643 0)
(0.50599 0.0042104 0)
(0.160001 0.000579025 0)
(0.191188 9.09393e-05 0)
(0.555499 -0.00023012 0)
(0.882433 -0.00389556 0)
(1.06207 -0.00614289 0)
(1.10978 -0.00477768 0)
(1.10655 -0.00196214 0)
(1.09291 0.00173174 0)
(1.08087 0.00551602 0)
(1.07097 0.009735 0)
(1.06343 0.0143156 0)
(1.06012 0.0184339 0)
(1.06125 0.0208837 0)
(1.06599 0.0222937 0)
(1.07448 0.0233229 0)
(1.08404 0.0238626 0)
(1.08109 0.0235407 0)
(1.0198 0.0208481 0)
(0.820064 0.0134493 0)
(0.485556 0.00418821 0)
(0.151908 0.000610504 0)
(0.191718 5.15423e-05 0)
(0.551315 0.000832494 0)
(0.875829 -0.00161002 0)
(1.06083 -0.00356538 0)
(1.11378 -0.0018834 0)
(1.1121 0.00137144 0)
(1.09826 0.00525815 0)
(1.08579 0.00934847 0)
(1.07541 0.0136648 0)
(1.06724 0.0178859 0)
(1.06205 0.0212448 0)
(1.06159 0.0236616 0)
(1.06584 0.0247192 0)
(1.07447 0.0251409 0)
(1.08356 0.0255674 0)
(1.07704 0.0247077 0)
(1.0053 0.0212866 0)
(0.794506 0.013208 0)
(0.463876 0.00421692 0)
(0.143265 0.000624467 0)
(0.193719 0.0002132 0)
(0.551581 0.00149821 0)
(0.870903 0.000546518 0)
(1.06146 -0.000121973 0)
(1.11857 0.00183608 0)
(1.11786 0.00509073 0)
(1.10394 0.00931456 0)
(1.09074 0.0136851 0)
(1.0795 0.0182637 0)
(1.07017 0.0227352 0)
(1.06488 0.0262773 0)
(1.06454 0.0279493 0)
(1.06818 0.0284472 0)
(1.07592 0.0285449 0)
(1.08265 0.0277567 0)
(1.0725 0.0263734 0)
(0.992122 0.0221866 0)
(0.771562 0.0134331 0)
(0.444109 0.00445731 0)
(0.134937 0.000670568 0)
(0.197678 0.000647889 0)
(0.55424 0.00226153 0)
(0.871169 0.00341238 0)
(1.06319 0.00310598 0)
(1.12389 0.00558041 0)
(1.12436 0.00942465 0)
(1.10997 0.0139715 0)
(1.09624 0.0187703 0)
(1.08442 0.023692 0)
(1.07439 0.0280662 0)
(1.06698 0.0307732 0)
(1.06364 0.031855 0)
(1.06606 0.0320046 0)
(1.0737 0.031273 0)
(1.08044 0.0306582 0)
(1.06606 0.0284174 0)
(0.974321 0.0232122 0)
(0.744276 0.0139001 0)
(0.421777 0.00472235 0)
(0.125501 0.000711491 0)
(0.204134 0.000865261 0)
(0.561284 0.00345873 0)
(0.875076 0.00584814 0)
(1.06779 0.00756521 0)
(1.13018 0.01089 0)
(1.1314 0.0147794 0)
(1.11676 0.0196754 0)
(1.10208 0.0248988 0)
(1.08882 0.0302764 0)
(1.07672 0.0350012 0)
(1.06821 0.0379572 0)
(1.06558 0.0389514 0)
(1.0676 0.0383868 0)
(1.0739 0.0369689 0)
(1.07695 0.034395 0)
(1.05771 0.0311641 0)
(0.95728 0.0249839 0)
(0.719049 0.0148118 0)
(0.400511 0.00514566 0)
(0.11607 0.000782591 0)
(0.212337 0.00101758 0)
(0.572319 0.00475009 0)
(0.882952 0.00895053 0)
(1.07441 0.0118932 0)
(1.13747 0.0160993 0)
(1.13927 0.0210773 0)
(1.12375 0.0268233 0)
(1.10798 0.0325918 0)
(1.09323 0.0382478 0)
(1.07964 0.0429273 0)
(1.06907 0.0450502 0)
(1.06306 0.0445267 0)
(1.06256 0.0430639 0)
(1.06872 0.0403598 0)
(1.07255 0.0386014 0)
(1.04793 0.0344363 0)
(0.935056 0.0269907 0)
(0.688172 0.0158482 0)
(0.375415 0.00558343 0)
(0.105073 0.000838325 0)
(0.224721 0.00136061 0)
(0.590888 0.00676913 0)
(0.898073 0.0135925 0)
(1.08498 0.018563 0)
(1.14672 0.0237786 0)
(1.14829 0.0292613 0)
(1.13179 0.0358738 0)
(1.1143 0.0425069 0)
(1.09719 0.0487036 0)
(1.08051 0.0533098 0)
(1.06766 0.0548917 0)
(1.06243 0.0538959 0)
(1.06335 0.051581 0)
(1.06769 0.0485742 0)
(1.06579 0.0441705 0)
(1.03486 0.0384321 0)
(0.912642 0.0296665 0)
(0.658725 0.0172093 0)
(0.350929 0.00615331 0)
(0.0939829 0.000880604 0)
(0.240524 0.00194994 0)
(0.615141 0.00864838 0)
(0.91953 0.0183616 0)
(1.09961 0.0256538 0)
(1.15802 0.0323374 0)
(1.15941 0.039442 0)
(1.1412 0.0472718 0)
(1.12201 0.0545011 0)
(1.10296 0.0608029 0)
(1.08429 0.0648435 0)
(1.06899 0.0654286 0)
(1.05968 0.0629304 0)
(1.05592 0.0587802 0)
(1.05867 0.0539675 0)
(1.0581 0.049997 0)
(1.02009 0.0432279 0)
(0.883834 0.0326562 0)
(0.622167 0.0189425 0)
(0.321233 0.00677978 0)
(0.0809836 0.000888766 0)
(0.26271 0.00281423 0)
(0.648878 0.0124396 0)
(0.948297 0.0251445 0)
(1.11881 0.0351994 0)
(1.17249 0.0433719 0)
(1.17236 0.0520914 0)
(1.15189 0.0609654 0)
(1.12997 0.0692367 0)
(1.10767 0.0761344 0)
(1.08527 0.0801934 0)
(1.06647 0.0795601 0)
(1.05635 0.0756259 0)
(1.05418 0.0702971 0)
(1.05642 0.0650401 0)
(1.04768 0.0579566 0)
(1.00105 0.0490391 0)
(0.854288 0.0366943 0)
(0.586479 0.0212218 0)
(0.29138 0.00748798 0)
(0.0679259 0.000857313 0)
(0.294295 0.00372065 0)
(0.695139 0.0156215 0)
(0.987511 0.0332718 0)
(1.14423 0.0466933 0)
(1.18979 0.0572558 0)
(1.18744 0.0682237 0)
(1.16342 0.0787776 0)
(1.13824 0.0875875 0)
(1.1127 0.0941274 0)
(1.08715 0.0967349 0)
(1.06553 0.0947121 0)
(1.05174 0.0892885 0)
(1.0447 0.0821435 0)
(1.04294 0.0742659 0)
(1.03529 0.0668158 0)
(0.979178 0.0565887 0)
(0.815972 0.0414309 0)
(0.54039 0.0239206 0)
(0.253836 0.00812431 0)
(0.0525942 0.000802691 0)
(0.33077 0.00709758 0)
(0.753261 0.0247336 0)
(1.03559 0.0463614 0)
(1.1753 0.0638857 0)
(1.21137 0.0764539 0)
(1.20409 0.0903329 0)
(1.17503 0.10164 0)
(1.14508 0.110688 0)
(1.11446 0.116667 0)
(1.08409 0.118388 0)
(1.05869 0.114151 0)
(1.04356 0.105972 0)
(1.03815 0.0969177 0)
(1.03726 0.0883445 0)
(1.019 0.0781368 0)
(0.9511 0.0646602 0)
(0.775314 0.0470805 0)
(0.494146 0.0268776 0)
(0.216596 0.00867782 0)
(0.0379658 0.000674451 0)
(0.410972 0.010781 0)
(0.840725 0.0358169 0)
(1.10078 0.0673669 0)
(1.21408 0.0894906 0)
(1.2366 0.104738 6.5104e-34)
(1.22236 0.120316 -2.92502e-34)
(1.1871 0.131663 0)
(1.15263 0.139594 0)
(1.11823 0.14344 0)
(1.08414 0.141689 0)
(1.05514 0.133839 0)
(1.03646 0.124012 0)
(1.02598 0.11268 0)
(1.01878 0.101035 0)
(0.999863 0.0895384 0)
(0.918972 0.0738831 0)
(0.723212 0.0524231 0)
(0.433036 0.0291349 0)
(0.168071 0.00842271 0)
(0.0207828 0.000711761 0)
(0.482442 0.025988 4.86617e-20)
(0.942457 0.0596581 -3.68236e-20)
(1.17003 0.101127 0)
(1.25399 0.127197 2.83064e-20)
(1.26386 0.142537 -2.29527e-20)
(1.24002 0.160216 3.08614e-34)
(1.1979 0.169732 0)
(1.15783 0.175519 1.63427e-20)
(1.11702 0.17701 -5.36179e-20)
(1.07645 0.172723 1.09294e-20)
(1.04338 0.163039 0)
(1.02259 0.148561 -2.76385e-20)
(1.01318 0.135137 -3.30995e-20)
(1.00735 0.122359 5.78871e-20)
(0.970519 0.106854 -4.5726e-20)
(0.867508 0.0855006 0)
(0.651813 0.0596154 -1.65198e-20)
(0.357009 0.0302932 0)
(0.116062 0.00845042 -9.10203e-20)
(0.00339896 0.0006906 1.0728e-19)
(0.518523 0.0536477 -6.36791e-21)
(1.00646 0.102549 1.1151e-19)
(1.21945 0.151512 -6.60787e-21)
(1.28696 0.175043 -7.07827e-20)
(1.28774 0.191983 -4.86559e-20)
(1.25485 0.207471 7.91337e-20)
(1.20655 0.214163 0)
(1.16119 0.217441 0)
(1.11583 0.216081 8.54226e-20)
(1.07237 0.208699 0)
(1.03459 0.193476 1.00073e-19)
(1.00845 0.17842 2.96553e-20)
(0.9911 0.162724 3.76658e-22)
(0.971346 0.146252 -6.32023e-20)
(0.93395 0.12933 0)
(0.820216 0.105666 0)
(0.590517 0.0707141 -2.7022e-19)
(0.303333 0.0346085 6.78278e-19)
(0.0906825 0.00915014 -4.01543e-19)
(-0.00552318 -4.1566e-05 -4.73352e-19)
(0.526106 0.0763089 -6.53234e-20)
(1.0437 0.159431 2.47637e-20)
(1.25598 0.211539 1.32807e-20)
(1.31308 0.233759 1.23692e-19)
(1.30634 0.24916 1.43264e-20)
(1.266 0.260493 -2.06618e-19)
(1.21218 0.26345 7.02805e-20)
(1.16118 0.263464 0)
(1.10964 0.25912 -1.80948e-19)
(1.05775 0.248179 1.60316e-19)
(1.01363 0.231306 -2.70214e-19)
(0.984741 0.212105 1.26642e-19)
(0.968523 0.194137 -8.20468e-20)
(0.955022 0.178437 1.84763e-19)
(0.904715 0.158448 0)
(0.78197 0.12592 -6.76513e-20)
(0.557425 0.0837062 0)
(0.292649 0.0400701 3.73573e-19)
(0.0897689 0.0122918 -8.84428e-19)
(-0.00515241 -0.000993498 5.54343e-19)
(0.521363 0.108013 1.86386e-19)
(1.06329 0.216052 -8.12992e-20)
(1.27737 0.276559 -1.71425e-20)
(1.33008 0.29809 0)
(1.31811 0.311398 -9.13685e-20)
(1.27244 0.317579 1.12627e-19)
(1.21391 0.31581 -7.52991e-20)
(1.15782 0.311905 0)
(1.10113 0.30325 1.28649e-19)
(1.04575 0.287389 -1.1269e-19)
(0.999676 0.267128 2.34362e-19)
(0.966576 0.245666 0)
(0.942985 0.227604 -1.74417e-19)
(0.917497 0.206797 9.82472e-20)
(0.872283 0.18446 2.48144e-19)
(0.755531 0.151746 -2.18352e-19)
(0.542336 0.103162 3.47512e-19)
(0.29382 0.0530758 -7.70058e-19)
(0.100789 0.0176738 4.86192e-19)
(0.000984673 -0.000121183 -6.0818e-19)
(0.509931 0.132433 -6.73924e-20)
(1.0719 0.270353 4.83571e-20)
(1.28881 0.342715 -5.68943e-20)
(1.33921 0.363891 1.11969e-19)
(1.32362 0.374843 -1.04948e-19)
(1.27418 0.376123 3.57876e-20)
(1.21212 0.369934 3.63209e-21)
(1.15221 0.361839 -1.46476e-19)
(1.09168 0.349042 -1.35052e-19)
(1.03223 0.330383 -2.42241e-19)
(0.979331 0.306371 -5.04032e-19)
(0.941949 0.281877 -1.55193e-19)
(0.919766 0.259718 2.33716e-21)
(0.899523 0.24174 -3.36964e-19)
(0.846656 0.217591 -6.07835e-21)
(0.728962 0.176294 3.17985e-19)
(0.528661 0.122063 -9.6015e-20)
(0.298049 0.0669756 -5.5675e-20)
(0.113581 0.0250691 0)
(0.00851494 0.00176668 1.2944e-18)
(0.493216 0.153239 0)
(1.066 0.319854 -5.29444e-21)
(1.29098 0.405719 0)
(1.34153 0.427719 -1.27524e-20)
(1.32338 0.437676 1.02026e-19)
(1.27145 0.43466 -8.31478e-20)
(1.20668 0.424048 8.23143e-20)
(1.1433 0.41176 2.40358e-19)
(1.07841 0.394555 -7.51476e-20)
(1.01323 0.371072 1.20011e-19)
(0.956528 0.34195 2.70992e-19)
(0.918386 0.316316 3.38263e-19)
(0.892201 0.296366 -2.037e-19)
(0.86292 0.271496 3.64779e-19)
(0.816224 0.245162 -2.89046e-19)
(0.709792 0.20541 0)
(0.52478 0.145584 -7.29041e-19)
(0.308853 0.0845867 9.81209e-19)
(0.129037 0.0351436 7.32362e-20)
(0.0170792 0.00476335 -1.3682e-18)
(0.479287 0.17361 -5.1207e-21)
(1.05895 0.368635 -1.38993e-20)
(1.28878 0.467069 8.64549e-20)
(1.33931 0.489721 -9.7155e-20)
(1.31895 0.498397 8.38737e-20)
(1.26497 0.49155 -8.08521e-20)
(1.19811 0.477361 1.63464e-19)
(1.13216 0.461438 -7.24571e-20)
(1.06472 0.440736 -3.032e-19)
(0.997847 0.414078 4.87798e-23)
(0.941064 0.383773 -2.94258e-19)
(0.897977 0.356029 -3.63579e-19)
(0.866744 0.329542 2.24684e-19)
(0.843961 0.306344 -1.31177e-19)
(0.792316 0.278912 3.13877e-19)
(0.686364 0.229634 0)
(0.513538 0.167962 -4.52142e-19)
(0.312935 0.101144 6.67743e-19)
(0.139682 0.0453853 1.26465e-18)
(0.0237494 0.00792001 -1.48764e-18)
(0.465094 0.191303 -4.13614e-20)
(1.04642 0.412953 1.44608e-20)
(1.28215 0.524506 -5.32796e-20)
(1.33318 0.548752 1.00665e-19)
(1.31096 0.556979 1.18596e-20)
(1.25551 0.546769 -1.58924e-19)
(1.18699 0.529101 -9.44934e-20)
(1.11899 0.509469 -9.20389e-20)
(1.04922 0.484703 -1.70623e-19)
(0.978559 0.453454 2.74887e-19)
(0.91423 0.418621 2.97673e-19)
(0.869555 0.387117 5.76998e-19)
(0.842095 0.360876 0)
(0.807999 0.334649 6.29027e-21)
(0.763344 0.302512 -8.61361e-19)
(0.667941 0.258432 2.01011e-19)
(0.508145 0.190729 9.7679e-19)
(0.318294 0.119399 -2.88192e-19)
(0.148619 0.0559841 6.00015e-19)
(0.0290164 0.0111946 -5.00497e-20)
(0.455533 0.209744 5.94023e-21)
(1.03559 0.456273 3.72417e-20)
(1.27361 0.579737 -2.50253e-20)
(1.32454 0.605448 1.15123e-19)
(1.30069 0.612724 -1.72696e-19)
(1.24399 0.599346 1.58142e-19)
(1.1743 0.578795 9.78113e-20)
(1.10482 0.556122 2.75525e-19)
(1.03269 0.528503 3.43382e-19)
(0.959378 0.49525 -3.16599e-19)
(0.896444 0.458708 0)
(0.852067 0.423123 -2.17738e-19)
(0.815194 0.392984 2.49987e-19)
(0.791505 0.365161 3.15281e-19)
(0.740371 0.33414 -1.82239e-19)
(0.64613 0.279633 -4.4496e-19)
(0.495038 0.212223 -1.32863e-19)
(0.316649 0.135052 -1.58416e-21)
(0.152223 0.0650044 0)
(0.0320758 0.0137632 0)
(0.447398 0.225945 -6.3751e-20)
(1.02337 0.496296 0)
(1.26284 0.631254 -1.07854e-20)
(1.31363 0.65893 -8.5469e-21)
(1.28852 0.66575 1.94789e-19)
(1.23097 0.649631 -4.97386e-20)
(1.16025 0.626335 9.9233e-20)
(1.08926 0.600803 -1.86634e-19)
(1.01535 0.570055 2.6015e-19)
(0.940967 0.532724 -1.03173e-19)
(0.873857 0.49018 1.70159e-19)
(0.822461 0.452671 6.90088e-19)
(0.792407 0.421962 1.41217e-20)
(0.756008 0.390383 -3.28542e-19)
(0.711984 0.353227 6.08572e-19)
(0.62606 0.306172 4.16844e-21)
(0.484085 0.231766 1.42143e-19)
(0.311315 0.149125 -6.78036e-19)
(0.150027 0.0720358 6.98158e-19)
(0.032648 0.0152515 -8.23191e-19)
(0.440734 0.243696 3.88411e-23)
(1.01211 0.534905 0)
(1.25132 0.680491 0)
(1.30158 0.710028 -5.96112e-21)
(1.27536 0.715824 -5.86113e-20)
(1.21693 0.697063 7.44863e-20)
(1.14537 0.671505 -1.85951e-19)
(1.07343 0.643604 0)
(0.998183 0.610422 -3.83445e-19)
(0.92069 0.571002 4.57864e-19)
(0.851437 0.527082 4.83949e-19)
(0.802279 0.486375 -2.53318e-19)
(0.764896 0.449516 -3.05987e-19)
(0.73855 0.416803 7.17235e-19)
(0.689838 0.381497 -2.16127e-19)
(0.603376 0.32197 -2.58153e-19)
(0.467236 0.248655 -1.54549e-19)
(0.303444 0.160122 -7.30967e-19)
(0.145469 0.0767354 1.06573e-19)
(0.0315963 0.0161959 8.87905e-19)
(0.436377 0.261939 -3.30491e-20)
(1.00103 0.571083 -4.22297e-20)
(1.23872 0.72621 2.3648e-20)
(1.28842 0.75776 -1.57676e-22)
(1.26128 0.763122 -5.71705e-20)
(1.20223 0.742193 1.22315e-19)
(1.13008 0.714452 0)
(1.05727 0.684241 1.12209e-19)
(0.980744 0.648888 -8.84775e-20)
(0.902003 0.606496 7.62536e-19)
(0.83114 0.557996 -1.10641e-19)
(0.777328 0.512932 1.25412e-19)
(0.740974 0.475791 0)
(0.703443 0.438577 -3.88226e-19)
(0.661408 0.395398 4.699e-19)
(0.58266 0.344088 0)
(0.453607 0.262184 -3.33201e-19)
(0.292193 0.169531 9.79622e-19)
(0.138706 0.0792319 1.15542e-19)
(0.0291301 0.0165708 -1.09262e-18)
(0.433863 0.278891 -8.56457e-20)
(0.99117 0.605869 1.099e-19)
(1.22611 0.76979 0)
(1.27494 0.803211 6.56233e-21)
(1.24694 0.807636 0)
(1.18732 0.784509 -1.56281e-19)
(1.11476 0.754986 0)
(1.04131 0.722997 0)
(0.96333 0.685758 -1.1641e-19)
(0.881705 0.64136 -7.24715e-19)
(0.807356 0.591265 -8.93604e-19)
(0.752745 0.542728 1.46471e-19)
(0.712464 0.49874 5.27928e-19)
(0.68609 0.459897 4.27107e-19)
(0.639465 0.420172 -1.50732e-18)
(0.559935 0.353888 -6.05247e-19)
(0.433445 0.273715 3.5433e-19)
(0.27895 0.174423 0)
(0.130384 0.0800596 9.92731e-19)
(0.0261808 0.0160314 -1.17668e-18)
(0.432194 0.294622 1.04103e-19)
(0.981514 0.638385 -1.29163e-19)
(1.2132 0.810081 0)
(1.26108 0.845358 -1.09668e-20)
(1.2324 0.849477 3.17379e-21)
(1.17238 0.824651 0)
(1.09945 0.793415 5.68184e-20)
(1.02525 0.759603 7.7246e-20)
(0.946176 0.720785 -2.19301e-19)
(0.863651 0.674681 9.61185e-20)
(0.787251 0.621217 0)
(0.728928 0.567607 6.06324e-19)
(0.690102 0.522389 4.85958e-21)
(0.650198 0.47819 2.30322e-19)
(0.610766 0.427486 2.736e-19)
(0.537717 0.371242 0)
(0.417535 0.280839 -5.79392e-19)
(0.264504 0.177784 1.13709e-18)
(0.121623 0.0793934 -1.20241e-18)
(0.0230876 0.01513 2.53312e-18)
(0.430928 0.30956 0)
(0.972627 0.669591 0)
(1.20069 0.848384 -6.23596e-20)
(1.2474 0.88543 0)
(1.21801 0.888774 0)
(1.15757 0.862168 -1.30408e-19)
(1.08438 0.829517 5.81305e-20)
(1.00972 0.794405 1.75568e-20)
(0.929372 0.754213 -5.02384e-20)
(0.843742 0.70639 0)
(0.763288 0.650537 -1.35759e-19)
(0.70312 0.594591 -4.94552e-19)
(0.659021 0.542926 -5.95258e-19)
(0.63221 0.495131 -2.39194e-19)
(0.588222 0.448134 2.96393e-19)
(0.51457 0.37365 -6.98806e-19)
(0.39558 0.285915 1.24654e-18)
(0.249662 0.177106 2.52662e-21)
(0.112792 0.0776007 -1.15303e-18)
(0.0204262 0.0140009 -1.70792e-19)
(0.429767 0.324081 0)
(0.964031 0.699063 -1.06554e-19)
(1.18826 0.883766 7.72217e-20)
(1.23372 0.922386 0)
(1.20376 0.925549 0)
(1.14307 0.897681 2.61925e-19)
(1.06971 0.863749 0)
(0.994496 0.827225 0)
(0.913202 0.786005 -4.79992e-19)
(0.826663 0.737218 1.32295e-19)
(0.744351 0.679461 -1.20351e-18)
(0.679896 0.619695 0)
(0.636225 0.565127 -6.45298e-19)
(0.594251 0.510757 1.06458e-20)
(0.557259 0.448221 -9.51793e-19)
(0.490919 0.38459 3.76062e-19)
(0.380223 0.284611 1.67201e-21)
(0.236886 0.174495 -1.31267e-18)
(0.105641 0.0744912 6.21882e-19)
(0.0175528 0.0124407 1.82716e-19)
(0.428702 0.33825 0)
(0.956078 0.727294 -1.50184e-19)
(1.17635 0.91744 8.17195e-20)
(1.22047 0.957565 1.01178e-19)
(1.18991 0.960048 -1.42474e-20)
(1.12896 0.930775 2.61917e-20)
(1.05555 0.895785 -3.53816e-20)
(0.980062 0.858374 4.62571e-19)
(0.897607 0.816174 5.13456e-19)
(0.808012 0.766131 1.00803e-18)
(0.721293 0.706304 1.00002e-18)
(0.653462 0.644376 1.75569e-19)
(0.603089 0.583995 9.28417e-19)
(0.573721 0.524088 5.72944e-19)
(0.532235 0.464739 6.83298e-19)
(0.467003 0.37655 -4.11689e-19)
(0.358394 0.279454 -4.79283e-19)
(0.226683 0.164472 5.61945e-19)
(0.103309 0.0749921 -3.33475e-19)
(0.0204585 0.017973 5.91219e-19)
(0.427721 0.352004 2.1318e-19)
(0.948546 0.754015 2.34966e-19)
(1.16467 0.948589 4.79897e-20)
(1.20743 0.989887 1.62582e-20)
(1.17644 0.992226 1.24857e-20)
(1.11539 0.962036 -7.27506e-20)
(1.04198 0.926162 3.41311e-20)
(0.966025 0.887694 -2.03516e-20)
(0.882564 0.844794 -5.96825e-19)
(0.79214 0.794454 -1.09375e-18)
(0.70379 0.7343 6.94214e-20)
(0.630851 0.669716 0)
(0.57959 0.606323 0)
(0.532129 0.539673 -2.98601e-19)
(0.495477 0.457537 -1.11731e-18)
(0.438924 0.377728 8.86794e-19)
(0.348831 0.258839 5.24429e-19)
(0.23349 0.146212 0)
(0.116461 0.0494509 1.06374e-18)
(0.0140288 -0.00740628 -6.31635e-19)
(0.42684 0.365174 -1.13009e-19)
(0.941442 0.77931 1.00081e-19)
(1.15352 0.978226 -1.16217e-19)
(1.19497 1.02073 -9.20829e-20)
(1.16348 1.02241 -1.16083e-20)
(1.1023 0.991084 -2.32613e-20)
(1.02895 0.954448 0)
(0.952817 0.915453 -5.80864e-19)
(0.868452 0.871909 7.33761e-20)
(0.775479 0.820751 0)
(0.68312 0.759402 0)
(0.605814 0.693505 1.11731e-19)
(0.54507 0.625436 1.50032e-19)
(0.507751 0.551317 -3.22239e-19)
(0.463914 0.472972 8.0214e-19)
(0.40528 0.354728 -9.66305e-19)
(0.319357 0.236608 -1.1217e-18)
(0.238799 0.125881 9.92973e-19)
(0.171063 0.0898887 -3.78864e-19)
(0.113136 0.0801181 2.20522e-19)
(0.425915 0.377565 1.42849e-19)
(0.934701 0.803211 0)
(1.14264 1.0056 0)
(1.18279 1.04893 -2.50041e-20)
(1.151 1.05047 2.02422e-20)
(1.08984 1.01847 -2.08053e-20)
(1.0166 0.981256 1.50582e-19)
(0.940149 0.941544 5.94644e-19)
(0.855056 0.8977 1.08196e-18)
(0.761251 0.846655 -8.212e-20)
(0.666533 0.785984 1.6956e-19)
(0.583986 0.719406 -9.98726e-19)
(0.522213 0.649847 -9.94018e-19)
(0.461416 0.571196 -1.72785e-19)
(0.413202 0.461747 0)
(0.362606 0.355598 -7.51407e-21)
(0.293479 0.169619 6.17293e-19)
(0.264239 0.0247269 -1.03962e-18)
(0.226394 -0.0870604 7.90407e-19)
(0.0841045 -0.0968365 6.55552e-19)
(0.424938 0.389501 -3.15986e-19)
(0.928092 0.825615 -1.42878e-19)
(1.13218 1.0317 7.00591e-21)
(1.17112 1.07611 5.49053e-20)
(1.13891 1.07708 0)
(1.07767 1.04422 -7.64529e-20)
(1.00456 1.00656 -2.16191e-19)
(0.928089 0.966754 -1.75187e-21)
(0.842314 0.92273 -5.66849e-19)
(0.746115 0.871283 -8.05474e-20)
(0.647962 0.810201 7.48142e-20)
(0.561726 0.744339 8.77266e-19)
(0.485163 0.672097 9.70168e-19)
(0.432294 0.584432 1.68111e-19)
(0.374558 0.487628 8.59734e-19)
(0.292723 0.324357 0)
(0.174639 0.155687 0)
(0.00500476 0.207683 7.16778e-19)
(-0.0775567 0.629817 -3.00307e-20)
(0.00667558 1.53562 -8.81384e-19)
(0.423887 0.400773 1.74768e-19)
(0.921912 0.847093 3.99419e-19)
(1.12194 1.05605 -5.45628e-19)
(1.15962 1.10119 2.71106e-19)
(1.12713 1.10227 -6.20342e-21)
(1.06592 1.06915 -2.99092e-20)
(0.992945 1.0314 0)
(0.916197 0.991405 -4.9552e-19)
(0.82971 0.947716 0)
(0.732608 0.897197 1.13499e-18)
(0.631404 0.837977 -9.08278e-20)
(0.538694 0.772957 1.01843e-19)
(0.463857 0.703185 1.10874e-18)
(0.378848 0.620715 -3.64331e-19)
(0.283027 0.484368 -4.37787e-19)
(0.197995 0.380621 0)
(0.0888777 0.507213 0)
(0.0264228 1.32728 0)
(0.0727141 2.46126 -4.07215e-19)
(0.100289 2.90983 -2.50497e-19)
(0.422593 0.411474 0)
(0.91571 0.866941 0)
(1.11211 1.07927 1.99332e-19)
(1.14868 1.12556 -2.19879e-19)
(1.11575 1.12632 9.52037e-20)
(1.05448 1.09273 3.64272e-20)
(0.981661 1.05497 2.77626e-20)
(0.904941 1.01543 -2.16154e-20)
(0.817836 0.972185 7.97742e-20)
(0.718491 0.92199 -1.30252e-18)
(0.614747 0.863585 1.64708e-19)
(0.519176 0.802301 8.7485e-19)
(0.42393 0.73433 -1.10476e-18)
(0.347085 0.637194 -1.21115e-18)
(0.267331 0.545868 4.07841e-19)
(0.19147 0.679552 0)
(0.123161 1.55478 5.65781e-19)
(0.124104 2.69234 6.21796e-19)
(0.132217 3.08764 -6.95242e-19)
(0.123757 3.22205 7.47432e-19)
(0.421248 0.421837 0)
(0.91002 0.886068 3.5512e-19)
(1.10256 1.10087 -4.994e-20)
(1.13796 1.14787 3.10967e-19)
(1.10479 1.14896 -9.99318e-20)
(1.0436 1.11545 0)
(0.970923 1.078 0)
(0.893926 1.0387 0)
(0.806225 0.996344 4.49841e-19)
(0.706399 0.948088 6.01536e-20)
(0.599258 0.892642 0)
(0.496416 0.832429 -8.70201e-19)
(0.411859 0.768769 0)
(0.297348 0.687294 8.66976e-19)
(0.205477 0.753987 -5.83544e-19)
(0.155521 1.46185 -4.69735e-19)
(0.157719 2.68031 -1.10093e-18)
(0.179394 3.12681 -5.80698e-19)
(0.170225 3.26752 -7.89655e-19)
(0.156221 3.30779 5.98668e-19)
(0.419764 0.431297 -1.24311e-19)
(0.904196 0.903446 1.54269e-20)
(1.0934 1.12145 -5.57247e-20)
(1.12786 1.16968 -2.39933e-19)
(1.09426 1.17066 0)
(1.03301 1.13698 0)
(0.96048 1.09982 0)
(0.883593 1.06139 3.45189e-20)
(0.795522 1.02003 -5.6858e-19)
(0.693729 0.972729 0)
(0.584905 0.918746 0)
(0.483225 0.865772 0)
(0.368702 0.803791 0)
(0.305521 0.779261 6.32736e-19)
(0.271568 1.16658 1.55581e-18)
(0.249586 2.3828 4.61123e-19)
(0.26297 3.08322 9.30179e-19)
(0.257499 3.28344 -7.12892e-19)
(0.208636 3.3492 2.63786e-19)
(0.176071 3.36188 0)
(0.418275 0.440487 1.28102e-19)
(0.89878 0.92087 -7.90233e-19)
(1.08432 1.14115 -2.11919e-19)
(1.11773 1.19005 -4.64264e-20)
(1.08394 1.19158 2.32467e-20)
(1.02281 1.15824 -7.6437e-20)
(0.950453 1.12165 -3.37402e-21)
(0.873365 1.08374 -3.86217e-19)
(0.784918 1.04367 0)
(0.68316 0.999108 -7.60408e-20)
(0.571728 0.949378 6.91737e-20)
(0.461981 0.896038 0)
(0.37541 0.847825 0)
(0.319884 0.966291 -7.91698e-19)
(0.274109 1.85523 9.73536e-20)
(0.270307 2.94308 -3.45871e-19)
(0.292618 3.28766 7.2214e-19)
(0.265081 3.3862 5.23953e-19)
(0.199413 3.41065 -7.11766e-19)
(0.174606 3.42015 3.5315e-19)
(0.416315 0.449874 2.52421e-19)
(0.892475 0.937776 7.7134e-19)
(1.07478 1.16152 2.54265e-19)
(1.10742 1.21176 0)
(1.07324 1.21317 0)
(1.01214 1.17967 5.97595e-20)
(0.940041 1.14342 7.13859e-20)
(0.863307 1.10654 3.44452e-19)
(0.774836 1.06771 2.23271e-20)
(0.671456 1.02439 9.73586e-19)
(0.559893 0.976383 -1.14772e-18)
(0.450039 0.928669 0)
(0.370038 0.925531 0)
(0.334933 1.33245 -5.39043e-19)
(0.335658 2.48724 -6.48278e-19)
(0.378834 3.19816 0)
(0.4033 3.36985 -7.288e-19)
(0.333417 3.4326 4.98133e-20)
(0.263839 3.4773 3.40993e-19)
(0.241269 3.50261 -1.12097e-19)
(0.414131 0.45965 -4.80756e-19)
(0.886104 0.956695 -3.7064e-19)
(1.06439 1.18272 0)
(1.09603 1.23338 0)
(1.06182 1.23537 0)
(1.00106 1.20212 0)
(0.929361 1.16638 -8.38187e-20)
(0.852667 1.12989 3.03174e-19)
(0.764172 1.09227 0)
(0.661915 1.05203 -8.86563e-19)
(0.549455 1.00924 2.05875e-18)
(0.439961 0.970713 8.39689e-20)
(0.387972 1.04765 1.11368e-19)
(0.387274 1.75008 8.78629e-19)
(0.401495 2.90055 -4.72216e-19)
(0.439362 3.32044 0)
(0.422518 3.44382 2.0372e-19)
(0.336978 3.53206 9.19889e-20)
(0.261159 3.59591 1.51027e-19)
(0.185847 3.57537 -1.36926e-20)
(0.411217 0.469877 2.2898e-19)
(0.878134 0.975089 -3.79645e-19)
(1.05306 1.20513 0)
(1.08407 1.25713 -6.78846e-20)
(1.04955 1.25871 2.32369e-19)
(0.988989 1.22505 0)
(0.917836 1.18942 0)
(0.841898 1.15385 -5.26439e-19)
(0.753928 1.1174 -5.69333e-20)
(0.650659 1.07832 8.69432e-19)
(0.535948 1.03647 -9.78221e-19)
(0.446652 1.0166 5.70293e-19)
(0.40713 1.23232 0)
(0.423992 2.18578 -4.65863e-19)
(0.466152 3.14556 3.0569e-19)
(0.529548 3.42401 1.90852e-19)
(0.521755 3.52045 0)
(0.458794 3.60206 -3.88781e-20)