/*--------------------------------*- C++ -*----------------------------------*\
| =========                 |                                                 |
| \\      /  F ield         | OpenFOAM: The Open Source CFD Toolbox           |
|  \\    /   O peration     | Version:  v2012                                 |
|   \\  /    A nd           | Website:  www.openfoam.com                      |
|    \\/     M anipulation  |                                                 |
\*---------------------------------------------------------------------------*/
FoamFile
{
    version     2.0;
    format      ascii;
    class       volScalarField;
    location    "59";
    object      p;
}
// * * * * * * * * * * * * * * * * * * * * * * * * * * * * * * * * * * * * * //

dimensions      [0 2 -2 0 0 0 0];


internalField   nonuniform List<scalar> 
2200
(
0.772455
0.750956
0.735049
0.719381
0.704772
0.692256
0.681904
0.673809
0.668114
0.665178
0.665681
0.669517
0.675864
0.684427
0.695115
0.707885
0.722678
0.738606
0.75465
0.776148
0.704862
0.701603
0.69868
0.694567
0.68911
0.682642
0.676033
0.670087
0.66559
0.663216
0.663691
0.667024
0.672224
0.678696
0.685688
0.692447
0.698113
0.702209
0.705059
0.708421
0.664947
0.665168
0.667226
0.66857
0.668961
0.668113
0.666138
0.663471
0.660946
0.659477
0.660055
0.662515
0.665805
0.669036
0.671373
0.672372
0.672101
0.67111
0.669474
0.669225
0.642447
0.643899
0.646497
0.648953
0.651401
0.653425
0.654584
0.654824
0.654467
0.6542
0.654873
0.656266
0.657476
0.657875
0.657201
0.655533
0.653373
0.651176
0.648558
0.647155
0.628074
0.630046
0.632868
0.635712
0.638579
0.64142
0.643891
0.645765
0.647009
0.64783
0.648583
0.649071
0.648852
0.647757
0.645908
0.643549
0.641011
0.638286
0.635487
0.633564
0.620732
0.62233
0.624536
0.62707
0.62974
0.632413
0.635018
0.637457
0.639495
0.641025
0.641921
0.641978
0.641165
0.63967
0.637784
0.635644
0.63332
0.630981
0.628885
0.62731
0.617303
0.618327
0.619597
0.621462
0.623608
0.625784
0.627987
0.630289
0.63253
0.634412
0.635467
0.635511
0.634765
0.633581
0.632208
0.630667
0.628974
0.6274
0.626287
0.62527
0.614612
0.615281
0.615915
0.617222
0.618846
0.620545
0.622315
0.624262
0.626356
0.628351
0.629642
0.629979
0.629685
0.629086
0.628326
0.627397
0.626363
0.625445
0.624999
0.624321
0.611348
0.611793
0.612192
0.613192
0.61446
0.615852
0.617364
0.619056
0.620944
0.622949
0.624517
0.625352
0.625646
0.625621
0.625354
0.624894
0.624322
0.623795
0.623612
0.623148
0.607274
0.607571
0.60793
0.608803
0.609923
0.61121
0.612661
0.614293
0.616136
0.618211
0.620123
0.621487
0.622299
0.622703
0.622812
0.622689
0.622405
0.622091
0.621965
0.621641
0.602526
0.602727
0.6031
0.603933
0.60503
0.606346
0.607886
0.60965
0.611646
0.613928
0.616273
0.618149
0.619409
0.62017
0.620536
0.620647
0.620549
0.620379
0.620277
0.620038
0.597287
0.597433
0.597806
0.598619
0.59977
0.601212
0.602936
0.604951
0.607293
0.610021
0.612877
0.615265
0.616908
0.61794
0.618536
0.618821
0.618911
0.618886
0.618818
0.618628
0.59163
0.591738
0.59212
0.592946
0.59418
0.595789
0.597771
0.600134
0.602935
0.60624
0.609741
0.612649
0.614708
0.616073
0.616935
0.617447
0.617749
0.617861
0.617831
0.617663
0.585585
0.585654
0.586037
0.586889
0.588231
0.590022
0.59227
0.595022
0.598384
0.602403
0.606667
0.610255
0.612811
0.614589
0.61582
0.616635
0.617164
0.617412
0.617426
0.617267
0.578981
0.579021
0.579443
0.580353
0.581837
0.583838
0.586382
0.589593
0.593617
0.598498
0.603675
0.608058
0.611282
0.613609
0.615296
0.616478
0.617257
0.617655
0.617717
0.617559
0.571778
0.571743
0.572162
0.573169
0.574868
0.577141
0.580057
0.583802
0.588583
0.594484
0.600793
0.606139
0.610167
0.613188
0.615437
0.617033
0.618104
0.618666
0.618777
0.618615
0.563657
0.56364
0.564104
0.565229
0.567179
0.56978
0.57317
0.577569
0.583225
0.590278
0.597919
0.604544
0.609606
0.613413
0.616274
0.618373
0.619777
0.62051
0.620677
0.620505
0.554496
0.554522
0.554961
0.556195
0.558432
0.561447
0.565448
0.570657
0.577385
0.585868
0.595172
0.603304
0.609576
0.614354
0.617964
0.620596
0.622369
0.623286
0.623505
0.623318
0.543816
0.543793
0.544342
0.545802
0.548423
0.55203
0.556851
0.56316
0.571311
0.581589
0.592821
0.60262
0.610263
0.616113
0.620529
0.623792
0.625984
0.627081
0.627349
0.62714
0.53116
0.531094
0.531769
0.533604
0.536782
0.541193
0.547118
0.55485
0.564806
0.577265
0.590837
0.602604
0.611729
0.61876
0.624099
0.62805
0.630703
0.631991
0.632298
0.632061
0.516236
0.516131
0.516905
0.519121
0.523048
0.528546
0.535934
0.545563
0.557877
0.573058
0.589294
0.603279
0.614093
0.622411
0.628746
0.633485
0.6366
0.638054
0.638388
0.63812
0.498019
0.497934
0.498943
0.501717
0.506631
0.513576
0.522917
0.535025
0.550307
0.568769
0.588096
0.604607
0.61728
0.62704
0.634538
0.640091
0.643687
0.64531
0.645645
0.645344
0.475547
0.475404
0.476706
0.480284
0.486677
0.495754
0.507833
0.523255
0.542244
0.564591
0.587483
0.606671
0.621378
0.632715
0.641412
0.647878
0.651945
0.653693
0.654002
0.653668
0.446492
0.44651
0.448609
0.453698
0.462453
0.474717
0.490648
0.510327
0.533732
0.560526
0.587386
0.609668
0.626593
0.639554
0.649526
0.656807
0.661247
0.663075
0.663326
0.662958
0.408175
0.408416
0.41194
0.419889
0.43265
0.449831
0.470996
0.495999
0.524654
0.556558
0.587867
0.613397
0.632647
0.647384
0.658613
0.666719
0.671438
0.673243
0.673404
0.673022
0.357195
0.357585
0.364554
0.37777
0.39693
0.421239
0.44941
0.481109
0.516067
0.553692
0.589589
0.618351
0.639915
0.656342
0.668866
0.677599
0.682245
0.683728
0.683724
0.6834
0.290181
0.292968
0.30803
0.329464
0.357559
0.390822
0.427186
0.46636
0.508199
0.55215
0.593129
0.625687
0.650004
0.668586
0.682491
0.691925
0.696456
0.697486
0.697425
0.697239
0.214031
0.223531
0.248674
0.279898
0.318153
0.360551
0.405167
0.452104
0.501297
0.552138
0.59904
0.635845
0.663387
0.684306
0.699993
0.710169
0.714481
0.715051
0.715037
0.714969
0.14597
0.160639
0.192072
0.232271
0.280147
0.331398
0.384103
0.438784
0.495266
0.552683
0.604997
0.646099
0.67695
0.700148
0.717249
0.727978
0.732218
0.732442
0.732537
0.732533
0.0942415
0.107359
0.143971
0.190249
0.245461
0.30423
0.364319
0.426163
0.489349
0.553039
0.610743
0.656177
0.689769
0.715039
0.733503
0.744986
0.749283
0.750159
0.75036
0.750348
0.0513996
0.0638344
0.104214
0.154373
0.215041
0.279771
0.346217
0.414474
0.483996
0.554074
0.617437
0.666333
0.702406
0.72958
0.749343
0.761292
0.766374
0.767455
0.767507
0.767578
0.0148191
0.0274756
0.0705059
0.123545
0.188551
0.258091
0.330012
0.404079
0.47956
0.555354
0.623222
0.675554
0.714243
0.743023
0.764289
0.776912
0.782235
0.783444
0.783523
0.783597
-0.0170653
-0.00419046
0.0409681
0.0965736
0.165229
0.238846
0.315519
0.394599
0.475172
0.555877
0.628242
0.68424
0.724992
0.755356
0.777618
0.790775
0.796561
0.797911
0.798042
0.798099
-0.0454086
-0.0325206
0.0143274
0.0724402
0.144293
0.221403
0.302096
0.385406
0.470466
0.555998
0.633029
0.691907
0.734744
0.766272
0.789225
0.80313
0.809132
0.810661
0.810819
0.810859
-0.0712608
-0.0583573
-0.0101982
0.0503268
0.124947
0.205058
0.289233
0.376296
0.465564
0.55567
0.63676
0.698388
0.743219
0.775957
0.799296
0.813744
0.820109
0.821756
0.821966
0.821976
-0.0952719
-0.0821271
-0.0331637
0.0295697
0.10662
0.189422
0.276699
0.367188
0.460353
0.554634
0.639625
0.704365
0.750897
0.784494
0.808229
0.823195
0.829589
0.831407
0.83161
0.831595
-0.117877
-0.104456
-0.0547639
0.00987415
0.0890134
0.17423
0.264326
0.357947
0.454644
0.552835
0.641775
0.709514
0.757591
0.792419
0.816572
0.831256
0.837934
0.839731
0.839964
0.839897
-0.139182
-0.12565
-0.0752639
-0.00902192
0.071937
0.159371
0.252015
0.348414
0.448248
0.550121
0.643069
0.713974
0.764006
0.799735
0.824182
0.83871
0.845147
0.846983
0.847134
0.847013
-0.159504
-0.145895
-0.094823
-0.0272129
0.0553028
0.144687
0.239571
0.338424
0.44112
0.546563
0.643512
0.717797
0.770199
0.80705
0.831469
0.845431
0.851684
0.853309
0.853452
0.853351
-0.179226
-0.165224
-0.113649
-0.0448745
0.0389818
0.130069
0.226919
0.327997
0.433378
0.542186
0.643064
0.721054
0.776221
0.814343
0.838702
0.85208
0.857617
0.858989
0.859092
0.859005
-0.198619
-0.183907
-0.131884
-0.0620747
0.0229257
0.115469
0.214048
0.317169
0.425023
0.536903
0.641695
0.7237
0.782081
0.8222
0.846593
0.858831
0.863411
0.864121
0.864181
0.864144
-0.217551
-0.202086
-0.149654
-0.0789044
0.00710217
0.100926
0.201035
0.305988
0.416065
0.530795
0.639423
0.725635
0.787848
0.830523
0.855582
0.866706
0.869198
0.8689
0.86878
0.868636
-0.235998
-0.219893
-0.16698
-0.095332
-0.00843521
0.086494
0.187925
0.294482
0.406567
0.523915
0.636049
0.726596
0.793208
0.839556
0.866327
0.876168
0.876073
0.87386
0.873513
0.874424
-0.253816
-0.23725
-0.183841
-0.111354
-0.0236584
0.0722322
0.174787
0.282731
0.396615
0.516267
0.631474
0.726411
0.798037
0.848952
0.879015
0.888881
0.886016
0.879258
0.87429
0.873164
-0.271051
-0.254111
-0.200169
-0.1269
-0.0385031
0.0581909
0.161676
0.270806
0.386263
0.507872
0.625691
0.724823
0.801607
0.85853
0.893637
0.905771
0.903276
0.892054
0.891692
0.895839
-0.28764
-0.270352
-0.215906
-0.141947
-0.0529403
0.0444264
0.148672
0.258787
0.375547
0.498783
0.6188
0.721571
0.803678
0.867128
0.909225
0.926824
0.926115
0.896788
0.857909
0.823815
-0.303575
-0.286012
-0.231074
-0.156538
-0.0670489
0.030822
0.135627
0.246484
0.364249
0.488817
0.610605
0.71625
0.803067
0.873827
0.925123
0.951437
0.965239
0.942016
0.95929
1.01982
-0.318775
-0.301088
-0.245769
-0.170834
-0.081024
0.0171571
0.122278
0.233567
0.351936
0.477391
0.600432
0.708069
0.798772
0.875576
0.932969
0.964219
0.969543
0.94423
0.901295
0.917472
-0.333246
-0.315604
-0.259948
-0.184762
-0.0947691
0.00353457
0.108746
0.220168
0.338742
0.46459
0.588284
0.69685
0.78866
0.867781
0.926276
0.957755
0.940745
0.884085
0.818899
0.806225
-0.346946
-0.329504
-0.273608
-0.198342
-0.1083
-0.0100445
0.0950505
0.206321
0.324703
0.45039
0.573991
0.682129
0.77247
0.847436
0.900566
0.905405
0.867801
0.788597
0.71293
0.688983
-0.359938
-0.342828
-0.286766
-0.211574
-0.121622
-0.0235901
0.081188
0.192042
0.309858
0.434822
0.557478
0.663704
0.748791
0.812246
0.840569
0.825655
0.764505
0.661373
0.573036
0.549789
-0.372649
-0.355924
-0.299803
-0.224841
-0.135103
-0.0374193
0.0668927
0.177115
0.294035
0.417715
0.538473
0.640971
0.718702
0.766172
0.760519
0.724214
0.610683
0.48687
0.378516
0.350419
-0.385964
-0.369644
-0.313414
-0.238728
-0.14928
-0.0520032
0.0517542
0.161196
0.276971
0.398856
0.516725
0.613595
0.683989
0.706644
0.673037
0.583406
0.426106
0.272411
0.142171
0.11377
-0.400381
-0.384283
-0.327902
-0.253505
-0.164366
-0.0674804
0.035691
0.144251
0.258656
0.378258
0.492202
0.58246
0.642181
0.636113
0.58388
0.432843
0.232533
0.0195095
-0.160949
-0.210084
-0.416057
-0.400064
-0.343341
-0.269149
-0.180297
-0.0838101
0.0187256
0.126295
0.239129
0.355996
0.464892
0.548923
0.593645
0.555845
0.468569
0.280396
0.0494134
-0.239048
-0.55973
-0.708406
-0.433025
-0.41694
-0.359842
-0.285812
-0.197187
-0.101073
0.00079597
0.107279
0.218351
0.332127
0.435184
0.512607
0.539299
0.471182
0.334682
0.129678
-0.103549
-0.44644
-1.03148
-1.60248
-0.451428
-0.435177
-0.377491
-0.303489
-0.215001
-0.119246
-0.0180729
0.0872632
0.196475
0.306991
0.404094
0.473382
0.48126
0.396858
0.205716
-0.0268914
-0.228622
-0.461915
-1.01428
-2.52179
-0.471225
-0.454647
-0.396383
-0.322392
-0.233973
-0.138557
-0.0381173
0.0659878
0.173189
0.280306
0.371462
0.430961
0.418155
0.338608
0.112806
-0.124111
-0.270974
-0.307298
-0.295651
-0.681598
-0.492415
-0.47574
-0.416709
-0.342722
-0.254421
-0.159477
-0.059968
0.0426663
0.147549
0.250658
0.336166
0.385273
0.356638
0.288987
0.0631649
-0.137723
-0.247657
-0.255047
-0.201598
-0.24155
-0.514815
-0.498032
-0.438446
-0.364662
-0.276542
-0.18218
-0.0837831
0.0171462
0.119349
0.217994
0.29848
0.337479
0.302358
0.235278
0.0312898
-0.127955
-0.209422
-0.217177
-0.265202
-0.269089
-0.538495
-0.521765
-0.461556
-0.388076
-0.300208
-0.206645
-0.109612
-0.0106585
0.0885591
0.18261
0.258102
0.287753
0.255515
0.174743
0.00329381
-0.118166
-0.187664
-0.164993
-0.185244
-0.186859
-0.563061
-0.546098
-0.48584
-0.413014
-0.325423
-0.232852
-0.137384
-0.0406181
0.0553198
0.144812
0.215438
0.234538
0.214653
0.106847
-0.0316058
-0.113169
-0.151269
-0.199564
-0.173953
-0.18252
-0.58845
-0.571116
-0.511236
-0.439147
-0.351795
-0.260585
-0.166922
-0.0725545
0.0197272
0.104892
0.171533
0.180212
0.172134
0.0466418
-0.0682972
-0.131829
-0.10806
-0.168032
-0.148962
-0.153877
-0.613441
-0.595986
-0.537532
-0.466304
-0.379172
-0.289684
-0.197952
-0.106125
-0.0179645
0.0633022
0.127369
0.12852
0.120251
-0.00490139
-0.0951121
-0.145777
-0.134447
-0.148945
-0.154499
-0.15263
-0.637886
-0.620546
-0.56406
-0.4936
-0.406997
-0.319724
-0.230078
-0.140948
-0.0572443
0.0204026
0.0832857
0.0808716
0.0628691
-0.0470116
-0.108623
-0.139705
-0.17868
-0.149927
-0.155669
-0.150057
-0.660584
-0.643954
-0.589511
-0.520273
-0.435132
-0.350254
-0.262772
-0.176484
-0.0972219
-0.0234937
0.0389203
0.0372824
0.0073484
-0.0825124
-0.122642
-0.114078
-0.187497
-0.130134
-0.145412
-0.137556
-0.681076
-0.66556
-0.613132
-0.54511
-0.462995
-0.380415
-0.295368
-0.212121
-0.136953
-0.06801
-0.00611917
-0.00326433
-0.0384239
-0.101503
-0.130019
-0.0900987
-0.134293
-0.116955
-0.123358
-0.120283
-0.697547
-0.683689
-0.633864
-0.567911
-0.48964
-0.409245
-0.327027
-0.247077
-0.175551
-0.112188
-0.0516618
-0.0416304
-0.0704235
-0.103394
-0.121613
-0.0979543
-0.112059
-0.115273
-0.116415
-0.116724
-0.709346
-0.697645
-0.651105
-0.587651
-0.51328
-0.435828
-0.356883
-0.280482
-0.212208
-0.154875
-0.0962534
-0.0777374
-0.0957259
-0.098947
-0.112196
-0.12545
-0.117717
-0.122928
-0.11958
-0.120467
-0.714895
-0.705631
-0.663266
-0.603257
-0.53282
-0.458984
-0.383787
-0.31121
-0.246092
-0.194325
-0.137651
-0.114446
-0.124834
-0.100605
-0.098122
-0.134152
-0.113709
-0.127398
-0.121153
-0.123787
-0.714371
-0.707258
-0.669232
-0.613091
-0.546973
-0.477489
-0.406592
-0.337985
-0.276196
-0.228626
-0.17406
-0.151379
-0.159217
-0.122375
-0.0720731
-0.106196
-0.0912676
-0.115083
-0.120279
-0.124267
-0.706666
-0.699316
-0.666418
-0.615863
-0.554873
-0.490134
-0.423802
-0.35924
-0.300775
-0.255945
-0.204879
-0.186482
-0.195496
-0.183385
-0.126378
-0.148492
-0.165713
-0.177361
-0.180029
-0.180309
-0.686493
-0.678085
-0.6533
-0.610123
-0.555376
-0.496154
-0.434772
-0.373684
-0.317544
-0.273897
-0.226349
-0.212527
-0.250301
-0.354282
-0.525238
-0.621362
-0.643067
-0.609746
-0.564235
-0.527518
-0.644297
-0.63626
-0.627237
-0.595986
-0.549051
-0.4954
-0.438658
-0.380109
-0.324195
-0.279375
-0.233661
-0.207101
-0.300268
-0.476849
-0.723529
-0.844637
-0.855747
-0.794245
-0.743929
-0.69593
-0.603115
-0.600192
-0.599497
-0.574982
-0.536902
-0.489749
-0.436441
-0.378654
-0.31946
-0.268379
-0.218213
-0.151475
-0.134384
-0.142331
-0.195757
-0.169081
-0.0862844
-0.0217589
0.0517301
0.0910874
-0.581059
-0.582671
-0.572883
-0.55727
-0.525815
-0.481558
-0.429187
-0.37056
-0.304978
-0.238095
-0.172176
-0.0437689
0.116732
0.381986
0.647944
0.87203
1.03483
1.12928
1.16919
1.19852
-0.54963
-0.549538
-0.545975
-0.543084
-0.516857
-0.474922
-0.421232
-0.359353
-0.286413
-0.201719
-0.112081
0.0345409
0.25573
0.594279
0.936724
1.21797
1.41223
1.52791
1.58324
1.60347
-0.534733
-0.533001
-0.535688
-0.529599
-0.509408
-0.469885
-0.414851
-0.348805
-0.270312
-0.173823
-0.0692334
0.0637016
0.304651
0.621454
0.939578
1.2104
1.41157
1.5329
1.587
1.60253
-0.521629
-0.520468
-0.524345
-0.51703
-0.504471
-0.465132
-0.409008
-0.340479
-0.259288
-0.157942
-0.0491872
0.053485
0.272601
0.546182
0.813526
1.04426
1.22505
1.33379
1.38163
1.39482
-0.503167
-0.502763
-0.503937
-0.500177
-0.498386
-0.462912
-0.407968
-0.337552
-0.255041
-0.155684
-0.0510732
0.0247562
0.202766
0.434662
0.650135
0.83268
0.979507
1.06858
1.10711
1.11683
-0.489391
-0.488649
-0.48429
-0.481728
-0.481019
-0.458014
-0.407953
-0.337747
-0.257034
-0.164781
-0.065887
-0.00640248
0.127004
0.31848
0.48968
0.628999
0.740341
0.809014
0.838551
0.846226
-0.498261
-0.495789
-0.490109
-0.490723
-0.48623
-0.463832
-0.409784
-0.338458
-0.259839
-0.177484
-0.0846731
-0.0332783
0.0596255
0.213497
0.348323
0.453143
0.534881
0.586913
0.608467
0.612777
-0.525369
-0.524397
-0.524767
-0.534482
-0.528339
-0.491483
-0.418182
-0.339572
-0.26056
-0.187573
-0.101739
-0.0538584
0.00760288
0.128364
0.232416
0.310228
0.370357
0.408819
0.423749
0.428836
-0.555827
-0.559203
-0.568205
-0.577329
-0.565716
-0.509857
-0.419297
-0.335416
-0.255739
-0.191143
-0.113573
-0.0685628
-0.0284302
0.066571
0.14445
0.20033
0.244973
0.275099
0.285321
0.28821
-0.52158
-0.526038
-0.536917
-0.548232
-0.535263
-0.476942
-0.39587
-0.316739
-0.241565
-0.184952
-0.118633
-0.0775092
-0.0511076
0.0241005
0.080878
0.119811
0.153191
0.174245
0.183452
0.186111
-0.394944
-0.401396
-0.411878
-0.418433
-0.411481
-0.377266
-0.327187
-0.272978
-0.214506
-0.167211
-0.116634
-0.0816681
-0.0625258
-0.00477057
0.0355406
0.0635678
0.0862015
0.099484
0.105537
0.10703
-0.237409
-0.240912
-0.245786
-0.251581
-0.251745
-0.242957
-0.226812
-0.204352
-0.17138
-0.140174
-0.107041
-0.0808532
-0.0637016
-0.0231537
0.0047177
0.0240977
0.0379095
0.0451812
0.0475163
0.047299
-0.102763
-0.104503
-0.108138
-0.114809
-0.121366
-0.127622
-0.132263
-0.131634
-0.121114
-0.108161
-0.0903896
-0.0735832
-0.0586602
-0.0327265
-0.0150792
-0.00357597
0.00336614
0.0057006
0.00537246
0.0043523
-0.0108855
-0.0119032
-0.0143149
-0.0215385
-0.0342081
-0.0491075
-0.062654
-0.0724799
-0.0757843
-0.0764383
-0.0696296
-0.0609992
-0.0513116
-0.0365693
-0.0273845
-0.0222226
-0.0200399
-0.020741
-0.0225794
-0.023944
0.038742
0.0379428
0.0359191
0.0289848
0.015113
-0.00271026
-0.0195082
-0.0335616
-0.0427435
-0.0501295
-0.0494907
-0.0458275
-0.0430766
-0.0367395
-0.0337698
-0.033002
-0.0339129
-0.0362898
-0.0385393
-0.0399528
0.059328
0.0587456
0.0570342
0.0509998
0.0386783
0.0218527
0.0049473
-0.0104936
-0.0219519
-0.0313926
-0.0332127
-0.0331537
-0.0350038
-0.0339414
-0.0347622
-0.0370647
-0.0396933
-0.0426671
-0.0448442
-0.0461941
0.063645
0.0632093
0.0618619
0.0570772
0.0471912
0.0331714
0.0180639
0.00306232
-0.0089273
-0.0189311
-0.0216684
-0.0240223
-0.0279727
-0.0299246
-0.0328851
-0.036489
-0.0397256
-0.0425714
-0.0444432
-0.0456675
0.0597477
0.0594418
0.0584165
0.0548294
0.0473738
0.0365717
0.0242271
0.0109724
-0.000188303
-0.010407
-0.0139928
-0.0171428
-0.0218974
-0.0249881
-0.0288637
-0.0328377
-0.036212
-0.0388581
-0.0403331
-0.041392
0.0524235
0.0522179
0.0514672
0.0488761
0.0434334
0.0353888
0.0258343
0.0149428
0.00562826
-0.00420568
-0.00862266
-0.011672
-0.0163226
-0.0197748
-0.0241152
-0.0281403
-0.0312797
-0.033596
-0.0347003
-0.0355799
0.0441863
0.0440684
0.0435361
0.0417406
0.0379148
0.0320801
0.0249069
0.0162765
0.00902197
6.9106e-05
-0.00456618
-0.00746255
-0.0115242
-0.0148709
-0.0191742
-0.0229058
-0.0256769
-0.0276765
-0.0284609
-0.0291786
0.0360229
0.0359693
0.0355988
0.0343614
0.031703
0.0275965
0.0223729
0.0157602
0.0104055
0.00273641
-0.00140054
-0.00434483
-0.00816034
-0.0109302
-0.0145779
-0.0177449
-0.0201372
-0.0218411
-0.0224387
-0.023017
0.0284655
0.0284234
0.0281661
0.0273253
0.0254851
0.0225525
0.01873
0.0137385
0.0099903
0.00385107
0.000540262
-0.00198769
-0.0056159
-0.00793076
-0.0108911
-0.013434
-0.0153077
-0.0166504
-0.0170544
-0.0174875
0.0218185
0.0217951
0.0216276
0.0210665
0.0198347
0.0178055
0.0150088
0.0111628
0.00855346
0.00375767
0.00129418
-0.000713554
-0.00367115
-0.00541509
-0.00774684
-0.00962156
-0.0109417
-0.0118632
-0.0121458
-0.012525
0.015898
0.0158814
0.0157916
0.0154388
0.0146515
0.0133248
0.0114911
0.00864825
0.00693445
0.00311742
0.00140046
-0.000336891
-0.00259436
-0.00350246
-0.00504725
-0.00619544
-0.00700627
-0.00758928
-0.0077653
-0.00809381
0.0105897
0.0105679
0.0105126
0.0103259
0.0098875
0.00911715
0.00810378
0.00617333
0.00525037
0.00224581
0.00101338
-0.000352924
-0.00189871
-0.0021365
-0.00305349
-0.00360106
-0.00390175
-0.00411214
-0.00417888
-0.00453388
0.00596903
0.00594561
0.00591237
0.00586084
0.00569602
0.00533575
0.00493214
0.0036995
0.00347171
0.00138926
0.000669743
-0.000292248
-0.00134042
-0.00121006
-0.00193113
-0.00204068
-0.00196241
-0.00189086
-0.00175878
-0.00204793
0.00201512
0.00202404
0.0020481
0.00207201
0.00206369
0.00189982
0.00185489
0.00123111
0.0014426
0.00044076
0.000454979
0.000278594
-0.000431808
-0.000191761
-0.00113275
-0.00140896
-0.00177697
-0.00208629
-0.0018135
-0.00182031
-1.07366
-0.236337
0.0335982
0.308946
0.489331
0.643903
0.768103
0.894832
1.03501
1.11868
-0.0958781
0.309626
0.325087
0.512644
0.635205
0.745183
0.839641
0.923948
0.951033
0.909325
0.278893
0.491833
0.525929
0.66185
0.746748
0.825713
0.890879
0.93983
0.941727
0.956008
0.506904
0.648916
0.683639
0.784532
0.84117
0.898148
0.942639
0.974808
0.983774
1.00752
0.68371
0.784371
0.814081
0.880975
0.925351
0.965918
0.997848
1.02204
1.03175
1.06338
0.82621
0.894592
0.92482
0.967351
1.00326
1.0332
1.05736
1.07807
1.09214
1.12048
0.944871
0.995198
1.02067
1.04848
1.07599
1.09967
1.11956
1.13879
1.15364
1.18019
1.04834
1.08522
1.10622
1.12678
1.14749
1.16683
1.18421
1.20231
1.21718
1.24085
1.14213
1.17118
1.18748
1.2027
1.21877
1.23481
1.25035
1.26725
1.28087
1.3032
1.2303
1.25073
1.26556
1.2787
1.29226
1.30602
1.31952
1.33411
1.34566
1.3653
1.31569
1.33146
1.34528
1.35709
1.369
1.38063
1.39177
1.40345
1.41112
1.42792
1.4009
1.41344
1.42715
1.4389
1.44954
1.45933
1.46816
1.47642
1.47998
1.49122
1.48965
1.50047
1.51394
1.52347
1.53104
1.53833
1.54552
1.552
1.55309
1.56046
1.58806
1.59267
1.60086
1.6056
1.60899
1.61347
1.61947
1.62714
1.63103
1.64091
1.70136
1.68825
1.68096
1.67524
1.67252
1.67386
1.68019
1.69256
1.70738
1.73705
1.82334
1.7673
1.73628
1.71908
1.71086
1.7108
1.71964
1.73925
1.77105
1.84032
)
;

boundaryField
{
    wall-4
    {
        type            zeroGradient;
    }
    pressure-outlet-7
    {
        type            fixedValue;
        value           uniform 0;
    }
    velocity-inlet-6
    {
        type            zeroGradient;
    }
    velocity-inlet-5
    {
        type            zeroGradient;
    }
    frontAndBackPlanes
    {
        type            empty;
    }
}


// ************************************************************************* //
