/*--------------------------------*- C++ -*----------------------------------*\
| =========                 |                                                 |
| \\      /  F ield         | OpenFOAM: The Open Source CFD Toolbox           |
|  \\    /   O peration     | Version:  v2012                                 |
|   \\  /    A nd           | Website:  www.openfoam.com                      |
|    \\/     M anipulation  |                                                 |
\*---------------------------------------------------------------------------*/
FoamFile
{
    version     2.0;
    format      ascii;
    class       volScalarField;
    location    "56";
    object      p;
}
// * * * * * * * * * * * * * * * * * * * * * * * * * * * * * * * * * * * * * //

dimensions      [0 2 -2 0 0 0 0];


internalField   nonuniform List<scalar> 
2200
(
0.772858
0.751359
0.735451
0.719783
0.705176
0.692657
0.682303
0.674203
0.668502
0.665564
0.666041
0.669853
0.676205
0.684766
0.695453
0.708221
0.723009
0.738931
0.754972
0.776471
0.705274
0.702015
0.699093
0.694978
0.689515
0.683044
0.676431
0.67048
0.665979
0.663591
0.664082
0.667388
0.672574
0.679036
0.686018
0.692773
0.698436
0.702535
0.705389
0.708748
0.665367
0.665588
0.667641
0.66898
0.669369
0.668518
0.666534
0.663862
0.661329
0.65985
0.660424
0.662884
0.666161
0.669379
0.671715
0.672711
0.672438
0.671439
0.669793
0.669545
0.642847
0.644295
0.646898
0.649362
0.651811
0.653833
0.65499
0.655224
0.654856
0.654574
0.655223
0.656607
0.657812
0.658204
0.657528
0.655858
0.653698
0.651494
0.648878
0.647473
0.628504
0.630477
0.6333
0.636139
0.638998
0.641833
0.6443
0.646169
0.647405
0.648211
0.648947
0.64943
0.649195
0.648091
0.646229
0.643859
0.641316
0.638593
0.635795
0.633871
0.621179
0.622778
0.624979
0.627505
0.630169
0.632836
0.635429
0.637855
0.639878
0.641398
0.642272
0.642311
0.64149
0.639984
0.638093
0.635951
0.633619
0.631276
0.62918
0.627605
0.61774
0.618762
0.62003
0.621893
0.62404
0.626213
0.62841
0.630701
0.632928
0.634789
0.635825
0.635838
0.635077
0.633878
0.632495
0.63095
0.629264
0.627692
0.626576
0.625559
0.615076
0.615745
0.616378
0.617682
0.619301
0.620991
0.622751
0.624689
0.626767
0.628737
0.630007
0.630331
0.630011
0.6294
0.628623
0.627676
0.626626
0.625701
0.625253
0.624577
0.611839
0.612286
0.612682
0.613677
0.614939
0.616326
0.617827
0.6195
0.621365
0.623348
0.624875
0.62568
0.625951
0.625905
0.625627
0.625157
0.624573
0.624036
0.623849
0.623385
0.607773
0.60807
0.608428
0.609298
0.610413
0.61169
0.61313
0.614745
0.616559
0.618587
0.62047
0.621799
0.622586
0.622973
0.623062
0.622926
0.622633
0.622309
0.62218
0.621856
0.603052
0.603253
0.603625
0.604456
0.605547
0.606853
0.608379
0.610125
0.612102
0.614357
0.616653
0.618494
0.619716
0.620436
0.62077
0.62086
0.620736
0.620554
0.620447
0.62021
0.597856
0.598002
0.598374
0.599185
0.600337
0.601778
0.603497
0.605496
0.607814
0.61051
0.613315
0.615628
0.617215
0.6182
0.618757
0.619008
0.619078
0.619043
0.618967
0.61878
0.592253
0.592363
0.592743
0.593564
0.594786
0.596384
0.598351
0.600695
0.603457
0.606703
0.610141
0.612996
0.614991
0.616311
0.617124
0.617599
0.617879
0.61797
0.617935
0.617769
0.586235
0.586306
0.586685
0.587532
0.588866
0.590643
0.592871
0.595602
0.598939
0.602915
0.607092
0.610609
0.613092
0.614797
0.615981
0.616755
0.617243
0.617468
0.617477
0.617322
0.579685
0.579723
0.580144
0.581052
0.582532
0.584525
0.587064
0.590257
0.594251
0.599086
0.604192
0.608434
0.611557
0.613809
0.615428
0.616557
0.617296
0.617674
0.617728
0.617574
0.572576
0.572544
0.572962
0.573963
0.575657
0.577921
0.580815
0.584524
0.58925
0.595062
0.601268
0.606527
0.610457
0.613369
0.615525
0.617062
0.618081
0.618618
0.618722
0.618566
0.564524
0.564507
0.564969
0.566084
0.568013
0.570582
0.573931
0.578275
0.583852
0.590806
0.598339
0.604874
0.609856
0.613566
0.616338
0.618356
0.619699
0.620401
0.620561
0.620396
0.555447
0.555473
0.555903
0.557129
0.559352
0.562345
0.566311
0.571475
0.57814
0.586542
0.595715
0.603664
0.609814
0.614495
0.618007
0.620534
0.622241
0.623122
0.623334
0.623155
0.544896
0.544874
0.545418
0.546871
0.549491
0.553093
0.557896
0.56416
0.572234
0.582385
0.593471
0.603109
0.610563
0.616267
0.62055
0.623704
0.625817
0.626876
0.627139
0.626939
0.532415
0.532348
0.533023
0.534851
0.53801
0.542403
0.548309
0.55599
0.56586
0.578192
0.591593
0.603217
0.612151
0.618987
0.624153
0.627968
0.630513
0.631761
0.632066
0.63184
0.517671
0.517565
0.518338
0.520549
0.524452
0.529913
0.537253
0.546825
0.559066
0.574143
0.590187
0.603975
0.614586
0.622694
0.628853
0.633419
0.636421
0.637836
0.638171
0.637916
0.499652
0.499568
0.500568
0.503323
0.50821
0.515124
0.524437
0.536507
0.551736
0.570086
0.589247
0.605456
0.617872
0.627412
0.634696
0.640076
0.643563
0.64515
0.645496
0.645207
0.477384
0.47724
0.478547
0.482139
0.488544
0.49762
0.509678
0.525056
0.543963
0.566167
0.588843
0.607788
0.622239
0.633306
0.641756
0.648011
0.651955
0.653672
0.654006
0.653681
0.44862
0.448629
0.450715
0.45579
0.46452
0.476738
0.492584
0.512127
0.535358
0.56198
0.588705
0.610827
0.62755
0.640299
0.650042
0.657128
0.66147
0.663296
0.663588
0.663226
0.410677
0.410915
0.41442
0.422308
0.434974
0.452044
0.473104
0.498
0.526553
0.558318
0.589478
0.614801
0.63385
0.648388
0.659438
0.667417
0.672079
0.673903
0.674113
0.673726
0.360145
0.360518
0.367459
0.380641
0.399728
0.423945
0.452034
0.483637
0.518481
0.555971
0.591635
0.620213
0.641552
0.657782
0.670147
0.678783
0.683442
0.684973
0.685016
0.684677
0.29358
0.296388
0.31141
0.332747
0.360751
0.393935
0.430212
0.469291
0.511029
0.55487
0.595769
0.628046
0.652165
0.670605
0.684388
0.693868
0.698533
0.699691
0.699641
0.699465
0.217921
0.227328
0.25238
0.283543
0.321677
0.363952
0.408453
0.455298
0.504436
0.555144
0.60184
0.638596
0.666216
0.687085
0.702875
0.713258
0.717818
0.718527
0.718475
0.718426
0.150257
0.164904
0.196233
0.236266
0.283942
0.33501
0.387546
0.442029
0.498247
0.555449
0.607588
0.648999
0.679862
0.703242
0.720569
0.731763
0.736401
0.736877
0.73704
0.737026
0.0986927
0.111821
0.148403
0.194517
0.2495
0.308031
0.367876
0.429515
0.492536
0.556304
0.614374
0.659678
0.69321
0.718635
0.737275
0.74933
0.754219
0.755338
0.755481
0.755509
0.0560497
0.0684489
0.108769
0.158801
0.219246
0.28375
0.350024
0.41824
0.487843
0.557916
0.621122
0.669859
0.706182
0.733443
0.753498
0.766127
0.771712
0.77306
0.773131
0.773214
0.0195929
0.0322425
0.0752119
0.128112
0.192917
0.262295
0.334109
0.408087
0.48344
0.55886
0.626569
0.67923
0.717928
0.746861
0.768457
0.781708
0.787632
0.789158
0.789273
0.789352
-0.0122061
0.000659511
0.0457846
0.101279
0.169756
0.243184
0.319639
0.398445
0.478727
0.559324
0.632088
0.687913
0.728662
0.759175
0.781591
0.795452
0.801814
0.803505
0.803681
0.803747
-0.0405213
-0.0276289
0.0192036
0.0772013
0.148811
0.225648
0.306061
0.389101
0.474001
0.559586
0.63649
0.695121
0.73812
0.769737
0.792899
0.807503
0.814074
0.81596
0.816183
0.816226
-0.0663441
-0.0534404
-0.00534317
0.0550249
0.129376
0.209202
0.293102
0.37998
0.469141
0.559141
0.639894
0.701759
0.746356
0.779146
0.80267
0.817711
0.824665
0.826698
0.826981
0.826995
-0.0904424
-0.0772318
-0.0283468
0.034214
0.111
0.193516
0.280546
0.370873
0.463841
0.557935
0.642766
0.707467
0.753638
0.787422
0.811409
0.826764
0.833821
0.835999
0.836286
0.836273
-0.113104
-0.0996464
-0.0499882
0.0144679
0.0933734
0.178347
0.268185
0.361535
0.457905
0.555909
0.644773
0.712208
0.760183
0.79506
0.819471
0.834591
0.841844
0.843989
0.844329
0.844218
-0.13445
-0.120938
-0.0705133
-0.00443315
0.0762916
0.163446
0.255751
0.351792
0.451316
0.553063
0.645851
0.71646
0.766576
0.802198
0.826883
0.841826
0.848776
0.850945
0.85119
0.851037
-0.154845
-0.141221
-0.0901206
-0.022682
0.0595695
0.148625
0.243132
0.341651
0.444118
0.54932
0.645945
0.720065
0.772432
0.809312
0.83395
0.848363
0.855109
0.857046
0.857276
0.857172
-0.174698
-0.160604
-0.109035
-0.0404469
0.0431215
0.13385
0.230324
0.331102
0.436214
0.544622
0.645259
0.723147
0.778216
0.816455
0.841042
0.854885
0.860967
0.862615
0.862789
0.862695
-0.194238
-0.179388
-0.127399
-0.0577869
0.0269259
0.11912
0.217339
0.320136
0.427643
0.539176
0.643781
0.725517
0.783919
0.824113
0.848877
0.861631
0.86678
0.867715
0.867805
0.867753
-0.213325
-0.197722
-0.145311
-0.0747427
0.0109904
0.104476
0.204218
0.308809
0.418532
0.532969
0.641238
0.727179
0.789426
0.832234
0.8578
0.869532
0.872659
0.872489
0.87236
0.87223
-0.231907
-0.215688
-0.162773
-0.0912879
-0.00465508
0.0899398
0.190994
0.297181
0.408917
0.525908
0.637534
0.727897
0.794453
0.840985
0.86843
0.879076
0.879614
0.877277
0.876905
0.877779
-0.24986
-0.233191
-0.179755
-0.107415
-0.0199856
0.0755599
0.17773
0.285313
0.398839
0.518048
0.632706
0.727462
0.798908
0.850023
0.880878
0.891903
0.8895
0.882938
0.877933
0.876696
-0.267217
-0.250173
-0.196191
-0.123071
-0.0349504
0.0613869
0.164484
0.273263
0.388336
0.509446
0.626702
0.725487
0.80206
0.85911
0.895073
0.908744
0.90705
0.895682
0.895057
0.899219
-0.283928
-0.266528
-0.212033
-0.138226
-0.0495051
0.0474931
0.151348
0.26111
0.377466
0.500182
0.619588
0.72185
0.803669
0.8671
0.910058
0.929671
0.930466
0.901417
0.861991
0.827246
-0.299979
-0.282296
-0.227307
-0.152928
-0.0637293
0.0337696
0.138182
0.248673
0.365998
0.490008
0.611143
0.716155
0.80251
0.873046
0.925075
0.953833
0.969571
0.94816
0.965253
1.02504
-0.315292
-0.297486
-0.242108
-0.167328
-0.0778054
0.0200007
0.124724
0.235621
0.353511
0.478388
0.600792
0.707628
0.797605
0.873918
0.93187
0.965276
0.973179
0.949378
0.907133
0.922757
-0.32987
-0.31211
-0.256391
-0.181356
-0.0916463
0.00628198
0.111088
0.222093
0.340158
0.465411
0.588442
0.696024
0.786876
0.865194
0.924107
0.957396
0.942531
0.887084
0.822414
0.809896
-0.343673
-0.326118
-0.270153
-0.195029
-0.105264
-0.00738989
0.0972888
0.208129
0.325992
0.451059
0.573942
0.680987
0.770125
0.844091
0.89761
0.904068
0.867665
0.7895
0.71435
0.691121
-0.356759
-0.33954
-0.283405
-0.208351
-0.118675
-0.0210303
0.0833273
0.19375
0.311045
0.435362
0.557247
0.662347
0.745982
0.808496
0.837241
0.823341
0.763675
0.661269
0.573404
0.550658
-0.369563
-0.352736
-0.296537
-0.221705
-0.132241
-0.0349512
0.0689409
0.178737
0.295132
0.418136
0.5381
0.639457
0.715702
0.762334
0.757088
0.72159
0.609341
0.486217
0.378334
0.350693
-0.382978
-0.366549
-0.310241
-0.235687
-0.146513
-0.0496275
0.0537207
0.162742
0.277977
0.399189
0.516277
0.612018
0.68103
0.703113
0.669655
0.581058
0.424496
0.271368
0.141617
0.113612
-0.397509
-0.381301
-0.324837
-0.25056
-0.161687
-0.0651895
0.0375814
0.14572
0.259569
0.378499
0.491673
0.580829
0.639329
0.633026
0.580812
0.430602
0.230747
0.01811
-0.162063
-0.210835
-0.413303
-0.397193
-0.340382
-0.266308
-0.177718
-0.081606
0.0205438
0.127693
0.239963
0.356181
0.464324
0.547415
0.591046
0.553062
0.466004
0.278246
0.0474348
-0.240856
-0.561589
-0.709866
-0.430404
-0.414203
-0.357006
-0.283074
-0.194697
-0.0989498
0.00254077
0.108612
0.21913
0.332249
0.434553
0.511252
0.537091
0.468731
0.332524
0.127604
-0.105702
-0.448667
-1.03419
-1.60547
-0.448938
-0.432566
-0.374772
-0.30086
-0.212612
-0.117213
-0.0163997
0.0885455
0.197229
0.307121
0.403524
0.472245
0.479348
0.394559
0.203735
-0.02896
-0.23086
-0.464431
-1.01781
-2.52831
-0.468878
-0.452187
-0.393801
-0.319873
-0.231677
-0.136606
-0.0365136
0.0672268
0.173932
0.280434
0.370883
0.43
0.416711
0.336559
0.110947
-0.126282
-0.273287
-0.30975
-0.298473
-0.685158
-0.490209
-0.473428
-0.414248
-0.340323
-0.252235
-0.15762
-0.0584279
0.0438744
0.148291
0.250826
0.33571
0.384452
0.355344
0.287167
0.061278
-0.139928
-0.249976
-0.257386
-0.203946
-0.243974
-0.512732
-0.495881
-0.436141
-0.362387
-0.274454
-0.180398
-0.0822989
0.0183241
0.120094
0.218137
0.298056
0.336948
0.301365
0.233949
0.0296206
-0.130061
-0.211586
-0.219347
-0.26734
-0.271309
-0.536594
-0.519738
-0.459361
-0.385924
-0.298223
-0.204948
-0.10818
-0.00950345
0.0893185
0.182737
0.25786
0.287312
0.254607
0.173406
0.00172383
-0.119981
-0.189732
-0.166888
-0.187243
-0.188826
-0.561326
-0.54428
-0.483845
-0.411004
-0.323534
-0.23122
-0.135991
-0.0394764
0.056103
0.14496
0.21544
0.234285
0.21384
0.105948
-0.0329932
-0.115032
-0.153237
-0.201252
-0.175864
-0.184369
-0.586804
-0.569406
-0.509383
-0.437254
-0.349998
-0.259025
-0.165562
-0.0714199
0.0205538
0.105127
0.171603
0.179989
0.171442
0.0454866
-0.0699726
-0.133516
-0.110029
-0.16994
-0.150872
-0.155748
-0.611947
-0.594416
-0.535844
-0.464541
-0.377478
-0.288174
-0.196595
-0.104957
-0.0170711
0.0637083
0.127675
0.128419
0.119351
-0.00608474
-0.0965301
-0.147624
-0.13621
-0.150878
-0.1564
-0.15454
-0.636534
-0.619114
-0.562478
-0.491906
-0.405386
-0.318243
-0.228707
-0.139747
-0.0562545
0.020934
0.0835562
0.0807358
0.062234
-0.0484657
-0.110372
-0.141226
-0.180224
-0.151891
-0.1575
-0.151985
-0.659413
-0.642714
-0.588112
-0.518715
-0.433621
-0.348781
-0.26136
-0.17517
-0.0961008
-0.0227786
0.0393528
0.0370917
0.00602941
-0.0847145
-0.12459
-0.114904
-0.187362
-0.132161
-0.147077
-0.139455
-0.680052
-0.664481
-0.611851
-0.543648
-0.461474
-0.378892
-0.293883
-0.210713
-0.135718
-0.0670521
-0.00546598
-0.00350049
-0.0403597
-0.104217
-0.13356
-0.0938433
-0.137471
-0.119358
-0.125936
-0.122951
-0.696711
-0.682799
-0.632774
-0.566598
-0.488187
-0.407727
-0.325471
-0.245504
-0.174123
-0.111001
-0.0508945
-0.0419886
-0.0728841
-0.107365
-0.126703
-0.103091
-0.116371
-0.118272
-0.119426
-0.119749
-0.708686
-0.696914
-0.650124
-0.58638
-0.511758
-0.434216
-0.355154
-0.278694
-0.21053
-0.153418
-0.09528
-0.0787139
-0.0997297
-0.103148
-0.116701
-0.129906
-0.121906
-0.127297
-0.123039
-0.123904
-0.714413
-0.705077
-0.662491
-0.602167
-0.531426
-0.457309
-0.381845
-0.309077
-0.243995
-0.192514
-0.136422
-0.115618
-0.130923
-0.107012
-0.101491
-0.133835
-0.115378
-0.133961
-0.126516
-0.130331
-0.714018
-0.706821
-0.668564
-0.612004
-0.54542
-0.475554
-0.404294
-0.335419
-0.273578
-0.226347
-0.172735
-0.152664
-0.168695
-0.129068
-0.0631885
-0.0942925
-0.0791456
-0.104536
-0.110714
-0.117249
-0.706372
-0.699023
-0.665943
-0.614909
-0.553364
-0.488041
-0.421145
-0.356078
-0.297375
-0.252778
-0.202731
-0.189554
-0.206314
-0.211543
-0.164446
-0.205596
-0.218613
-0.221168
-0.219917
-0.217239
-0.686385
-0.678041
-0.652967
-0.609171
-0.553631
-0.493624
-0.43153
-0.369768
-0.313054
-0.269468
-0.222791
-0.212622
-0.266592
-0.402205
-0.636608
-0.753316
-0.784885
-0.753447
-0.691207
-0.643576
-0.644824
-0.636932
-0.627328
-0.595281
-0.547147
-0.492341
-0.434671
-0.375161
-0.318219
-0.272642
-0.227479
-0.201137
-0.301048
-0.493025
-0.743216
-0.849619
-0.846534
-0.778475
-0.72476
-0.688061
-0.602995
-0.600008
-0.59914
-0.57397
-0.534477
-0.485944
-0.431619
-0.372517
-0.311682
-0.258773
-0.207232
-0.138103
-0.103363
-0.0730511
-0.0782651
-0.0172709
0.0758519
0.143964
0.210409
0.263055
-0.580136
-0.581536
-0.57233
-0.555701
-0.522866
-0.477017
-0.422953
-0.362835
-0.29511
-0.225257
-0.155719
-0.0204552
0.152258
0.440571
0.726685
0.966273
1.13768
1.2358
1.27789
1.29933
-0.548826
-0.54897
-0.545074
-0.540889
-0.513147
-0.469801
-0.414395
-0.350689
-0.275294
-0.186998
-0.0928511
0.0552783
0.288076
0.63277
0.974891
1.25732
1.4533
1.56865
1.62286
1.64316
-0.5305
-0.528947
-0.531368
-0.52548
-0.503468
-0.462313
-0.405974
-0.33849
-0.258109
-0.158567
-0.0505798
0.0782034
0.324221
0.638834
0.951017
1.21849
1.41935
1.54161
1.59664
1.6127
-0.515864
-0.514576
-0.518364
-0.510937
-0.497593
-0.458138
-0.400365
-0.32941
-0.246071
-0.143116
-0.0334338
0.0632982
0.278413
0.549935
0.811952
1.03827
1.21853
1.32737
1.37554
1.38853
-0.495101
-0.494123
-0.494367
-0.488226
-0.488565
-0.45481
-0.398331
-0.325658
-0.241785
-0.142672
-0.0382315
0.0332758
0.203447
0.432121
0.644378
0.823308
0.967873
1.05575
1.09396
1.10361
-0.489614
-0.487847
-0.482991
-0.480637
-0.482565
-0.452726
-0.397439
-0.324588
-0.242682
-0.152422
-0.0540152
0.00328015
0.128001
0.315278
0.484018
0.620446
0.729383
0.79745
0.826915
0.83454
-0.505993
-0.504216
-0.501335
-0.509018
-0.501665
-0.463878
-0.400348
-0.323916
-0.243665
-0.163955
-0.0718814
-0.0209236
0.0648419
0.214153
0.346366
0.448578
0.528104
0.579098
0.600275
0.604299
-0.531644
-0.532922
-0.536532
-0.546345
-0.533156
-0.481436
-0.402219
-0.32045
-0.241116
-0.171388
-0.0865746
-0.0392135
0.0174618
0.134488
0.23518
0.309621
0.367025
0.404335
0.418878
0.423741
-0.527959
-0.531668
-0.540524
-0.549269
-0.532479
-0.471917
-0.389025
-0.308077
-0.231745
-0.170882
-0.0959257
-0.0518252
-0.0160152
0.0751653
0.149701
0.202567
0.245156
0.274735
0.285007
0.287819
-0.445398
-0.450233
-0.463202
-0.469046
-0.45619
-0.408701
-0.344969
-0.278755
-0.212124
-0.16045
-0.0991307
-0.0598701
-0.0362036
0.0338349
0.0876328
0.125227
0.157137
0.176753
0.185663
0.188272
-0.299889
-0.304766
-0.31009
-0.315108
-0.310552
-0.290941
-0.260527
-0.22363
-0.178528
-0.139525
-0.0951884
-0.063414
-0.0453039
0.00794108
0.0453482
0.0718902
0.0925959
0.104005
0.108975
0.110128
-0.158682
-0.160852
-0.164641
-0.170276
-0.172166
-0.170771
-0.166038
-0.154845
-0.133564
-0.111364
-0.0844295
-0.0613788
-0.0455853
-0.00847428
0.0167325
0.0338349
0.04546
0.0511172
0.0525121
0.0520225
-0.0507849
-0.0519167
-0.0544767
-0.0609387
-0.0703543
-0.0806962
-0.0890249
-0.0926793
-0.0886756
-0.0816628
-0.0684829
-0.0543863
-0.0418228
-0.0184404
-0.00318758
0.00625976
0.0116309
0.0128803
0.0120393
0.0108546
0.0146008
0.0137542
0.0117744
0.00507497
-0.00809115
-0.023892
-0.037588
-0.0478326
-0.0527851
-0.0555183
-0.050957
-0.0440415
-0.0363933
-0.023851
-0.0164606
-0.0128003
-0.011469
-0.0126394
-0.0146788
-0.0161362
0.0461678
0.045566
0.0438199
0.0375912
0.0250903
0.00881958
-0.00663978
-0.0197803
-0.0286734
-0.0356937
-0.0353637
-0.0327726
-0.0311448
-0.026246
-0.0243726
-0.0243323
-0.0255299
-0.0279477
-0.0301256
-0.0315609
0.0574358
0.0569451
0.0554858
0.0502823
0.0397719
0.0254222
0.0107213
-0.0029954
-0.0133523
-0.0219455
-0.023349
-0.0237151
-0.0266984
-0.0261508
-0.0273622
-0.0294238
-0.0319757
-0.034847
-0.0368584
-0.0381764
0.0576536
0.0572908
0.0561481
0.0521344
0.0439333
0.0323931
0.019793
0.00694845
-0.00336658
-0.0127025
-0.0151302
-0.0174365
-0.0220892
-0.0236502
-0.026322
-0.0296202
-0.0328654
-0.0356997
-0.0374854
-0.0386247
0.052568
0.0523113
0.0514418
0.0484603
0.042371
0.033613
0.0235354
0.0125082
0.00337339
-0.00602228
-0.00952611
-0.012612
-0.0171341
-0.0195045
-0.0230015
-0.0266626
-0.0299115
-0.0324638
-0.0339326
-0.0349096
0.0456096
0.0454486
0.0448326
0.0427261
0.0383567
0.0319077
0.0241577
0.0152524
0.00778022
-0.00113919
-0.00518137
-0.00842028
-0.0122907
-0.0145623
-0.0183635
-0.0220071
-0.0249715
-0.027141
-0.0282531
-0.0290684
0.0381808
0.0380902
0.037649
0.0361859
0.0331486
0.0285818
0.02286
0.0159844
0.0102545
0.00233061
-0.00146437
-0.00447869
-0.00784881
-0.00983664
-0.013366
-0.0166047
-0.0191374
-0.0209311
-0.0216537
-0.0223073
0.0310905
0.0310338
0.0307255
0.0296993
0.0275535
0.0242872
0.0200916
0.0148571
0.010829
0.00445326
0.00149443
-0.000905894
-0.00378328
-0.00590134
-0.0089649
-0.0113994
-0.0132436
-0.0144704
-0.0148883
-0.0154706
0.0247661
0.0247382
0.024546
0.0238738
0.0224144
0.0200448
0.0169055
0.0128145
0.010064
0.00518576
0.00324558
0.00151736
-0.000802009
-0.00262193
-0.0050033
-0.00676647
-0.00802668
-0.00878549
-0.00899183
-0.0095127
0.0189691
0.0189518
0.0188367
0.0183982
0.0174545
0.0158994
0.0137521
0.0106758
0.00883889
0.00514862
0.00394249
0.0026198
0.000791183
-0.000458937
-0.00207106
-0.00330437
-0.00413177
-0.00461919
-0.00476266
-0.00522538
0.0137206
0.0136923
0.0136076
0.0133592
0.0127958
0.0118441
0.0105806
0.0084624
0.0074034
0.00456112
0.0037776
0.00289371
0.00161194
0.000610249
-0.000486767
-0.00111837
-0.00148238
-0.00174284
-0.00179906
-0.00221201
0.00918417
0.00915671
0.00909996
0.00897872
0.00870864
0.00821171
0.00753798
0.00608814
0.005644
0.0035232
0.00321946
0.00262792
0.00169584
0.000978454
0.00018941
1.45882e-05
6.34896e-05
8.74253e-05
8.99486e-05
-0.000352908
0.00523483
0.00520221
0.00518487
0.00513781
0.00501724
0.00474293
0.00447398
0.00350576
0.00352658
0.00209235
0.0021857
0.00210787
0.00135287
0.00111733
0.000335655
0.000304846
0.000464759
0.000541135
0.000697308
0.000373033
0.00182689
0.00182176
0.00184287
0.00185157
0.00181347
0.00162563
0.00160006
0.00105625
0.0013463
0.000597482
0.000826607
0.00126678
0.000820744
0.000961929
2.74258e-05
-0.000393741
-0.000925382
-0.00142226
-0.00114157
-0.0011593
-1.07453
-0.236087
0.0339078
0.309678
0.490645
0.645902
0.77111
0.898811
1.03965
1.12274
-0.0955884
0.310484
0.326429
0.51432
0.637524
0.748082
0.843135
0.927903
0.95515
0.913278
0.280193
0.49354
0.528112
0.66426
0.749632
0.828991
0.894472
0.943641
0.945629
0.959806
0.508881
0.651329
0.686214
0.787528
0.844284
0.901598
0.946238
0.978489
0.987495
1.0112
0.686226
0.787236
0.816968
0.884215
0.928621
0.969405
1.00142
1.02565
1.03539
1.06699
0.829101
0.897688
0.927962
0.97067
1.00666
1.03669
1.06091
1.08163
1.09572
1.12403
0.948005
0.998446
1.02396
1.05185
1.07943
1.10316
1.12308
1.14231
1.15718
1.18371
1.05162
1.08856
1.1096
1.1302
1.15095
1.17031
1.1877
1.20581
1.22068
1.24435
1.14551
1.17459
1.1909
1.20615
1.22223
1.23828
1.25383
1.27074
1.28436
1.30668
1.23372
1.25417
1.26901
1.28216
1.29572
1.30949
1.32299
1.33758
1.34913
1.36877
1.31913
1.33491
1.34873
1.36055
1.37246
1.3841
1.39523
1.40692
1.41459
1.43139
1.40436
1.4169
1.43061
1.44236
1.453
1.46279
1.47162
1.47988
1.48344
1.49469
1.4931
1.50392
1.5174
1.52693
1.5345
1.54179
1.54898
1.55546
1.55656
1.56392
1.59152
1.59612
1.60432
1.60906
1.61246
1.61694
1.62293
1.63061
1.6345
1.64438
1.70482
1.69172
1.68443
1.6787
1.67598
1.67732
1.68366
1.69603
1.71085
1.74052
1.82681
1.77077
1.73975
1.72255
1.71433
1.71427
1.7231
1.74271
1.77452
1.84378
)
;

boundaryField
{
    wall-4
    {
        type            zeroGradient;
    }
    pressure-outlet-7
    {
        type            fixedValue;
        value           uniform 0;
    }
    velocity-inlet-6
    {
        type            zeroGradient;
    }
    velocity-inlet-5
    {
        type            zeroGradient;
    }
    frontAndBackPlanes
    {
        type            empty;
    }
}


// ************************************************************************* //
