#           x             T        mag(U)             p
       -4.995       348.432   7.25135e-12        100000
       -4.985       348.432   7.25135e-12        100000
       -4.975       348.432   7.25135e-12        100000
       -4.965       348.432   7.25135e-12        100000
       -4.955       348.432   7.25135e-12        100000
       -4.945       348.432   8.31783e-12        100000
       -4.935       348.432   1.04508e-11        100000
       -4.925       348.432   1.25837e-11        100000
       -4.915       348.432   1.47167e-11        100000
       -4.905       348.432   1.68496e-11        100000
       -4.895       348.432   1.89826e-11        100000
       -4.885       348.432   2.11156e-11        100000
       -4.875       348.432   2.32485e-11        100000
       -4.865       348.432   2.53815e-11        100000
       -4.855       348.432   2.75144e-11        100000
       -4.845       348.432   3.30229e-11        100000
       -4.835       348.432   4.19068e-11        100000
       -4.825       348.432   5.07907e-11        100000
       -4.815       348.432   5.96746e-11        100000
       -4.805       348.432   6.85585e-11        100000
       -4.795       348.432   7.74424e-11        100000
       -4.785       348.432   8.63263e-11        100000
       -4.775       348.432   9.52102e-11        100000
       -4.765       348.432   1.04094e-10        100000
       -4.755       348.432   1.12978e-10        100000
       -4.745       348.432   1.36718e-10        100000
       -4.735       348.432   1.75315e-10        100000
       -4.725       348.432   2.13911e-10        100000
       -4.715       348.432   2.52507e-10        100000
       -4.705       348.432   2.91104e-10        100000
       -4.695       348.432     3.297e-10        100000
       -4.685       348.432   3.68297e-10        100000
       -4.675       348.432   4.06893e-10        100000
       -4.665       348.432   4.45489e-10        100000
       -4.655       348.432   4.84086e-10        100000
       -4.645       348.432   5.84201e-10        100000
       -4.635       348.432   7.45834e-10        100000
       -4.625       348.432   9.07468e-10        100000
       -4.615       348.432    1.0691e-09        100000
       -4.605       348.432   1.23074e-09        100000
       -4.595       348.432   1.39237e-09        100000
       -4.585       348.432     1.554e-09        100000
       -4.575       348.432   1.71564e-09        100000
       -4.565       348.432   1.87727e-09        100000
       -4.555       348.432    2.0389e-09        100000
       -4.545       348.432   2.45004e-09        100000
       -4.535       348.432   3.11069e-09        100000
       -4.525       348.432   3.77134e-09        100000
       -4.515       348.432   4.43199e-09        100000
       -4.505       348.432   5.09264e-09        100000
       -4.495       348.432   5.75328e-09        100000
       -4.485       348.432   6.41393e-09        100000
       -4.475       348.432   7.07458e-09        100000
       -4.465       348.432   7.73523e-09        100000
       -4.455       348.432   8.39588e-09        100000
       -4.445       348.432     1.004e-08        100000
       -4.435       348.432   1.26677e-08        100000
       -4.425       348.432   1.52954e-08        100000
       -4.415       348.432    1.7923e-08        100000
       -4.405       348.432   2.05507e-08        100000
       -4.395       348.432   2.31783e-08        100000
       -4.385       348.432    2.5806e-08        100000
       -4.375       348.432   2.84337e-08        100000
       -4.365       348.432   3.10613e-08        100000
       -4.355       348.432    3.3689e-08        100000
       -4.345       348.432   4.00865e-08        100000
       -4.335       348.432   5.02538e-08        100000
       -4.325       348.432   6.04211e-08        100000
       -4.315       348.432   7.05884e-08        100000
       -4.305       348.432   8.07557e-08        100000
       -4.295       348.432   9.09231e-08        100000
       -4.285       348.432    1.0109e-07        100000
       -4.275       348.432   1.11258e-07        100000
       -4.265       348.432   1.21425e-07        100000
       -4.255       348.432   1.31592e-07        100000
       -4.245       348.432   1.55792e-07        100000
       -4.235       348.432   1.94023e-07        100000
       -4.225       348.432   2.32254e-07        100000
       -4.215       348.432   2.70486e-07        100000
       -4.205       348.432   3.08717e-07        100000
       -4.195       348.432   3.46949e-07        100000
       -4.185       348.432    3.8518e-07        100000
       -4.175       348.432   4.23412e-07        100000
       -4.165       348.432   4.61643e-07        100000
       -4.155       348.432   4.99874e-07        100000
       -4.145       348.432   5.88772e-07        100000
       -4.135       348.432   7.28338e-07        100000
       -4.125       348.432   8.67903e-07        100000
       -4.115       348.432   1.00747e-06        100000
       -4.105       348.432   1.14703e-06        100000
       -4.095       348.432    1.2866e-06        100000
       -4.085       348.432   1.42616e-06        100000
       -4.075       348.432   1.56573e-06        100000
       -4.065       348.432   1.70529e-06        100000
       -4.055       348.432   1.84486e-06        100000
       -4.045       348.432   2.16165e-06        100000
       -4.035       348.432   2.65567e-06        100000
       -4.025       348.432    3.1497e-06        100000
       -4.015       348.432   3.64372e-06        100000
       -4.005       348.432   4.13774e-06        100000
       -3.995       348.432   4.63176e-06        100000
       -3.985       348.432   5.12578e-06        100000
       -3.975       348.432    5.6198e-06        100000
       -3.965       348.432   6.11383e-06        100000
       -3.955       348.432   6.60785e-06        100000
       -3.945       348.432   7.70165e-06        100000
       -3.935       348.432   9.39522e-06        100000
       -3.925       348.432   1.10888e-05        100000
       -3.915       348.432   1.27824e-05        100000
       -3.905       348.432   1.44759e-05        100000
       -3.895       348.432   1.61695e-05        100000
       -3.885       348.432   1.78631e-05        100000
       -3.875       348.432   1.95567e-05        100000
       -3.865       348.432   2.12502e-05        100000
       -3.855       348.432   2.29438e-05        100000
       -3.845       348.432   2.65979e-05        100000
       -3.835       348.432   3.22124e-05        100000
       -3.825       348.432    3.7827e-05        100000
       -3.815       348.432   4.34415e-05        100000
       -3.805       348.432   4.90561e-05        100000
       -3.795       348.432   5.46706e-05        100000
       -3.785       348.432   6.02852e-05        100000
       -3.775       348.432   6.58997e-05        100000
       -3.765       348.432   7.15143e-05        100000
       -3.755       348.432   7.71288e-05        100000
       -3.745       348.432   8.89227e-05        100000
       -3.735       348.432   0.000106896        100000
       -3.725       348.432   0.000124869        100000
       -3.715       348.432   0.000142842        100000
       -3.705       348.432   0.000160815        100000
       -3.695       348.432   0.000178789       99999.9
       -3.685       348.432   0.000196762       99999.9
       -3.675       348.432   0.000214735       99999.9
       -3.665       348.432   0.000232708       99999.9
       -3.655       348.432   0.000250681       99999.9
       -3.645       348.432   0.000287396       99999.9
       -3.635       348.432   0.000342852       99999.9
       -3.625       348.432   0.000398309       99999.8
       -3.615       348.432   0.000453765       99999.8
       -3.605       348.432   0.000509221       99999.8
       -3.595       348.432   0.000564677       99999.8
       -3.585       348.432   0.000620133       99999.8
       -3.575       348.432    0.00067559       99999.8
       -3.565       348.432   0.000731046       99999.7
       -3.555       348.432   0.000786502       99999.7
       -3.545       348.432   0.000896535       99999.7
       -3.535       348.432    0.00106115       99999.6
       -3.525       348.432    0.00122576       99999.5
       -3.515       348.432    0.00139037       99999.5
       -3.505       348.432    0.00155498       99999.4
       -3.495       348.431    0.00171958       99999.4
       -3.485       348.431    0.00188419       99999.3
       -3.475       348.431     0.0020488       99999.2
       -3.465       348.431    0.00221341       99999.2
       -3.455       348.431    0.00237802       99999.1
       -3.445       348.431    0.00269481         99999
       -3.435       348.431    0.00316377       99998.8
       -3.425        348.43    0.00363273       99998.7
       -3.415        348.43    0.00410169       99998.5
       -3.405        348.43    0.00457065       99998.3
       -3.395        348.43     0.0050396       99998.2
       -3.385        348.43    0.00550856         99998
       -3.375       348.429    0.00597752       99997.8
       -3.365       348.429    0.00644648       99997.7
       -3.355       348.429    0.00691544       99997.5
       -3.345       348.429    0.00778941       99997.2
       -3.335       348.428    0.00906839       99996.7
       -3.325       348.428     0.0103474       99996.2
       -3.315       348.428     0.0116263       99995.8
       -3.305       348.427     0.0129053       99995.3
       -3.295       348.427     0.0141843       99994.9
       -3.285       348.426     0.0154633       99994.4
       -3.275       348.426     0.0167423         99994
       -3.265       348.426     0.0180212       99993.5
       -3.255       348.425     0.0193002         99993
       -3.245       348.424     0.0216041       99992.2
       -3.235       348.423     0.0249328         99991
       -3.225       348.422     0.0282615       99989.8
       -3.215       348.421     0.0315903       99988.6
       -3.205        348.42      0.034919       99987.4
       -3.195       348.418     0.0382478       99986.2
       -3.185       348.417     0.0415765         99985
       -3.175       348.416     0.0449053       99983.8
       -3.165       348.415      0.048234       99982.6
       -3.155       348.414     0.0515627       99981.4
       -3.145       348.412     0.0573455       99979.3
       -3.135       348.409     0.0655824       99976.3
       -3.125       348.406     0.0738193       99973.3
       -3.115       348.403     0.0820562       99970.3
       -3.105       348.399     0.0902931       99967.3
       -3.095       348.397       0.09853       99964.3
       -3.085       348.394      0.106767       99961.3
       -3.075       348.391      0.115004       99958.3
       -3.065       348.387      0.123241       99955.3
       -3.055       348.384      0.131478       99952.3
       -3.045        348.38      0.145241       99947.3
       -3.035       348.373      0.164531       99940.3
       -3.025       348.365      0.183821       99933.2
       -3.015       348.358      0.203111       99926.2
       -3.005       348.351      0.222401       99919.2
       -2.995       348.344       0.24169       99912.1
       -2.985       348.338       0.26098       99905.1
       -2.975        348.33       0.28027       99898.1
       -2.965       348.323       0.29956         99891
       -2.955       348.317       0.31885         99884
       -2.945       348.305      0.349754       99872.7
       -2.935        348.29      0.392272       99857.2
       -2.925       348.274       0.43479       99841.6
       -2.915       348.258      0.477308         99826
       -2.905       348.243      0.519826       99810.5
       -2.895       348.227      0.562345       99794.9
       -2.885       348.212      0.604863       99779.4
       -2.875       348.196      0.647381       99763.8
       -2.865        348.18      0.689899       99748.2
       -2.855       348.165      0.732417       99732.7
       -2.845       348.141      0.797511       99708.8
       -2.835       348.109       0.88518       99676.6
       -2.825       348.077      0.972849       99644.5
       -2.815       348.045       1.06052       99612.3
       -2.805       348.013       1.14819       99580.1
       -2.795        347.98       1.23586         99548
       -2.785       347.948       1.32353       99515.8
       -2.775       347.916        1.4112       99483.6
       -2.765       347.884       1.49887       99451.5
       -2.755       347.852       1.58654       99419.3
       -2.745       347.805        1.7142       99372.3
       -2.735       347.743       1.88185       99310.5
       -2.725       347.681        2.0495       99248.8
       -2.715       347.619       2.21716         99187
       -2.705       347.557       2.38481       99125.2
       -2.695       347.495       2.55246       99063.4
       -2.685       347.433       2.72011       99001.6
       -2.675       347.371       2.88777       98939.8
       -2.665       347.309       3.05542       98878.1
       -2.655       347.247       3.22307       98816.3
       -2.645       347.161       3.45196       98731.2
       -2.635       347.052       3.74209       98622.9
       -2.625       346.943       4.03222       98514.6
       -2.615       346.834       4.32235       98406.3
       -2.605       346.725       4.61248         98298
       -2.595       346.616       4.90261       98189.6
       -2.585       346.507       5.19274       98081.3
       -2.575       346.398       5.48287         97973
       -2.565       346.289         5.773       97864.7
       -2.555        346.18       6.06313       97756.4
       -2.545       346.041       6.42791       97620.1
       -2.535       345.874       6.86734       97455.9
       -2.525       345.707       7.30677       97291.7
       -2.515        345.54        7.7462       97127.5
       -2.505       345.373       8.18563       96963.3
       -2.495       345.206       8.62506         96799
       -2.485       345.039       9.06449       96634.8
       -2.475       344.872       9.50392       96470.6
       -2.465       344.705       9.94335       96306.4
       -2.455       344.538       10.3828       96142.2
       -2.445       344.343       10.8985       95952.4
       -2.435       344.121       11.4905       95736.9
       -2.425       343.898       12.0824       95521.4
       -2.415       343.676       12.6744         95306
       -2.405       343.454       13.2664       95090.5
       -2.395       343.231       13.8583         94875
       -2.385       343.009       14.4503       94659.5
       -2.375       342.787       15.0423       94444.1
       -2.365       342.564       15.6342       94228.6
       -2.355       342.342       16.2262       94013.1
       -2.345       342.093       16.8908       93774.4
       -2.335       341.818       17.6281       93512.4
       -2.325       341.543       18.3654       93250.4
       -2.315       341.268       19.1026       92988.5
       -2.305       340.993       19.8399       92726.5
       -2.295       340.718       20.5771       92464.5
       -2.285       340.443       21.3144       92202.5
       -2.275       340.168       22.0517       91940.5
       -2.265       339.893       22.7889       91678.6
       -2.255       339.618       23.5262       91416.6
       -2.245        339.32       24.3274       91136.3
       -2.235       338.999       25.1926       90837.7
       -2.225       338.679       26.0578         90539
       -2.215       338.359        26.923       90240.4
       -2.205       338.038       27.7882       89941.8
       -2.195       337.718       28.6533       89643.1
       -2.185       337.397       29.5185       89344.5
       -2.175       337.077       30.3837       89045.9
       -2.165       336.757       31.2489       88747.2
       -2.155       336.436       32.1141       88448.6
       -2.145       336.098       33.0302       88137.8
       -2.135       335.743       33.9972       87814.8
       -2.125       335.387       34.9642       87491.8
       -2.115       335.032       35.9311       87168.9
       -2.105       334.677       36.8981       86845.9
       -2.095       334.321       37.8651       86522.9
       -2.085       333.966       38.8321       86199.9
       -2.075       333.611       39.7991       85876.9
       -2.065       333.255        40.766         85554
       -2.055         332.9        41.733         85231
       -2.045       332.532       42.7375       84901.6
       -2.035       332.152       43.7794       84565.7
       -2.025       331.772       44.8214       84229.8
       -2.015       331.393       45.8633         83894
       -2.005       331.013       46.9053       83558.1
       -1.995       330.633       47.9472       83222.3
       -1.985       330.253       48.9892       82886.4
       -1.975       329.873       50.0311       82550.5
       -1.965       329.494       51.0731       82214.7
       -1.955       329.114        52.115       81878.8
       -1.945       328.726       53.1832         81541
       -1.935        328.33       54.2775       81201.2
       -1.925       327.935       55.3719       80861.3
       -1.915       327.539       56.4662       80521.5
       -1.905       327.143       57.5605       80181.7
       -1.895       326.748       58.6549       79841.8
       -1.885       326.352       59.7492         79502
       -1.875       325.956       60.8436       79162.2
       -1.865       325.561       61.9379       78822.3
       -1.855       325.165       63.0322       78482.5
       -1.845       324.764       64.1443       78143.8
       -1.835       324.359       65.2742       77806.2
       -1.825       323.954       66.4041       77468.6
       -1.815       323.548       67.5339       77131.1
       -1.805       323.143       68.6638       76793.5
       -1.795       322.738       69.7936       76455.9
       -1.785       322.333       70.9235       76118.3
       -1.775       321.927       72.0534       75780.8
       -1.765       321.522       73.1832       75443.2
       -1.755       321.117       74.3131       75105.6
       -1.745       320.709       75.4547       74771.1
       -1.735       320.298        76.608       74439.8
       -1.725       319.888       77.7613       74108.5
       -1.715       319.477       78.9147       73777.2
       -1.705       319.067        80.068       73445.9
       -1.695       318.656       81.2214       73114.5
       -1.685       318.246       82.3747       72783.2
       -1.675       317.835       83.5281       72451.9
       -1.665       317.425       84.6814       72120.6
       -1.655       317.014       85.8347       71789.3
       -1.645       316.603       86.9957       71462.4
       -1.635        316.19       88.1643       71139.9
       -1.625       315.777       89.3329       70817.4
       -1.615       315.365       90.5015         70495
       -1.605       314.952       91.6701       70172.5
       -1.595        314.54       92.8388         69850
       -1.585       314.127       94.0074       69527.5
       -1.575       313.714        95.176       69205.1
       -1.565       313.302       96.3446       68882.6
       -1.555       312.889       97.5132       68560.1
       -1.545       312.476       98.6861       68242.8
       -1.535       312.063       99.8632       67930.7
       -1.525        311.65        101.04       67618.6
       -1.515       311.237       102.218       67306.5
       -1.505       310.824       103.395       66994.4
       -1.495       310.411       104.572       66682.3
       -1.485       309.998       105.749       66370.2
       -1.475       309.585       106.926       66058.1
       -1.465       309.172       108.103         65746
       -1.455       308.759        109.28       65433.9
       -1.445       308.348        110.46       65127.5
       -1.435       307.939       111.643         64827
       -1.425        307.53       112.825       64526.5
       -1.415       307.122       114.008         64226
       -1.405       306.713        115.19       63925.5
       -1.395       306.304       116.373         63625
       -1.385       305.895       117.555       63324.5
       -1.375       305.487       118.738         63024
       -1.365       305.078        119.92       62723.5
       -1.355       304.669       121.103         62423
       -1.345       304.257       122.284       62128.2
       -1.335       303.841       123.464       61839.3
       -1.325       303.425       124.644       61550.3
       -1.315       303.009       125.824       61261.3
       -1.305       302.593       127.004       60972.4
       -1.295       302.178       128.184       60683.4
       -1.285       301.762       129.364       60394.5
       -1.275       301.346       130.544       60105.5
       -1.265        300.93       131.724       59816.5
       -1.255       300.514       132.904       59527.6
       -1.245       300.118       134.085       59245.4
       -1.235       299.742       135.267       58970.1
       -1.225       299.365       136.449       58694.7
       -1.215       298.989       137.631       58419.3
       -1.205       298.613       138.813         58144
       -1.195       298.236       139.994       57868.6
       -1.185        297.86       141.176       57593.3
       -1.175       297.484       142.358       57317.9
       -1.165       297.107        143.54       57042.5
       -1.155       296.731       144.722       56767.2
       -1.145        296.31       145.896       56497.1
       -1.135       295.844       147.063       56232.4
       -1.125       295.379       148.229       55967.7
       -1.115       294.913       149.395       55702.9
       -1.105       294.447       150.562       55438.2
       -1.095       293.981       151.728       55173.4
       -1.085       293.515       152.895       54908.7
       -1.075       293.049       154.061       54643.9
       -1.065       292.584       155.227       54379.2
       -1.055       292.118       156.394       54114.5
       -1.045       291.753       157.559       53857.7
       -1.035       291.489       158.724       53609.1
       -1.025       291.225       159.888       53360.3
       -1.015       290.961       161.052       53111.6
       -1.005       290.697       162.217       52862.9
       -0.995       290.432       163.381       52614.2
       -0.985       290.168       164.546       52365.6
       -0.975       289.904        165.71       52116.9
       -0.965        289.64       166.874       51868.2
       -0.955       289.376       168.039       51619.4
       -0.945       288.978       169.194       51375.8
       -0.935       288.446        170.34       51137.3
       -0.925       287.913       171.486       50898.7
       -0.915       287.381       172.632       50660.2
       -0.905       286.849       173.778       50421.6
       -0.895       286.317       174.925       50183.1
       -0.885       285.785       176.071       49944.5
       -0.875       285.252       177.217         49706
       -0.865        284.72       178.363       49467.4
       -0.855       284.188       179.509       49228.9
       -0.845       283.769       180.644       48997.5
       -0.835       283.462       181.766       48773.4
       -0.825       283.155       182.889       48549.3
       -0.815       282.849       184.012       48325.1
       -0.805       282.542       185.135         48101
       -0.795       282.236       186.259       47876.9
       -0.785       281.929       187.381       47652.8
       -0.775       281.623       188.505       47428.6
       -0.765       281.316       189.628       47204.5
       -0.755       281.009        190.75       46980.4
       -0.745       280.721       191.867       46763.1
       -0.735       280.451       192.977       46552.7
       -0.725       280.182       194.087       46342.3
       -0.715       279.912       195.197         46132
       -0.705       279.642       196.307       45921.6
       -0.695       279.373       197.417       45711.2
       -0.685       279.103       198.527       45500.8
       -0.675       278.833       199.637       45290.5
       -0.665       278.564       200.747       45080.1
       -0.655       278.294       201.857       44869.7
       -0.645       277.916        202.95       44665.5
       -0.635       277.429       204.026       44467.6
       -0.625       276.943       205.103       44269.7
       -0.615       276.457       206.179       44071.8
       -0.605        275.97       207.255       43873.9
       -0.595       275.484       208.332         43676
       -0.585       274.997       209.408       43478.1
       -0.575       274.511       210.484       43280.2
       -0.565       274.025       211.561       43082.3
       -0.555       273.538       212.637       42884.4
       -0.545       273.111       213.694       42693.2
       -0.535       272.744       214.733       42508.8
       -0.525       272.376       215.772       42324.5
       -0.515       272.008        216.81       42140.1
       -0.505       271.641       217.849       41955.7
       -0.495       271.273       218.887       41771.4
       -0.485       270.906       219.926         41587
       -0.475       270.538       220.965       41402.6
       -0.465        270.17       222.003       41218.3
       -0.455       269.803       223.042       41033.9
       -0.445       269.535       224.063       40856.6
       -0.435       269.367       225.067       40686.3
       -0.425         269.2       226.071         40516
       -0.415       269.032       227.074       40345.8
       -0.405       268.864       228.078       40175.5
       -0.395       268.697       229.082       40005.2
       -0.385       268.529       230.086       39834.9
       -0.375       268.361       231.089       39664.7
       -0.365       268.194       232.093       39494.4
       -0.355       268.026       233.097       39324.1
       -0.345       267.808       234.076         39161
       -0.335        267.54        235.03       39005.1
       -0.325       267.272       235.984       38849.2
       -0.315       267.004       236.938       38693.2
       -0.305       266.736       237.892       38537.3
       -0.295       266.469       238.846       38381.4
       -0.285       266.201         239.8       38225.5
       -0.275       265.933       240.754       38069.5
       -0.265       265.665       241.708       37913.6
       -0.255       265.397       242.662       37757.7
       -0.245       265.052       243.586       37609.2
       -0.235       264.631       244.479       37468.2
       -0.225       264.209       245.373       37327.1
       -0.215       263.788       246.266       37186.1
       -0.205       263.367       247.159       37045.1
       -0.195       262.945       248.053         36904
       -0.185       262.524       248.946         36763
       -0.175       262.102        249.84         36622
       -0.165       261.681       250.733       36480.9
       -0.155        261.26       251.626       36339.9
       -0.145       260.887       252.487       36205.8
       -0.135       260.562       253.316       36078.7
       -0.125       260.238       254.145       35951.5
       -0.115       259.913       254.973       35824.4
       -0.105       259.589       255.802       35697.2
       -0.095       259.264        256.63       35570.1
       -0.085        258.94       257.459       35442.9
       -0.075       258.615       258.287       35315.8
       -0.065       258.291       259.116       35188.6
       -0.055       257.966       259.945       35061.5
       -0.045       257.746       260.739       34942.4
       -0.035       257.631       261.499       34831.5
       -0.025       257.517       262.259       34720.6
       -0.015       257.401       263.019       34609.6
       -0.005       257.286       263.779       34498.7
        0.005       257.171        264.54       34387.7
        0.015       257.056         265.3       34276.8
        0.025       256.942        266.06       34165.8
        0.035       256.826        266.82       34054.9
        0.045       256.712        267.58         33944
        0.055        256.62       268.289         33839
        0.065       256.553       268.948       33739.9
        0.075       256.485       269.607       33640.8
        0.085       256.418       270.266       33541.8
        0.095        256.35       270.925       33442.7
        0.105       256.283       271.583       33343.6
        0.115       256.215       272.242       33244.5
        0.125       256.148       272.901       33145.5
        0.135        256.08        273.56       33046.4
        0.145       256.013       274.219       32947.3
        0.155       255.896       274.826       32859.1
        0.165       255.729       275.382       32781.8
        0.175       255.562       275.938       32704.4
        0.185       255.396       276.494       32627.1
        0.195       255.229        277.05       32549.7
        0.205       255.063       277.606       32472.4
        0.215       254.896       278.162         32395
        0.225        254.73       278.718       32317.7
        0.235       254.563       279.274       32240.3
        0.245       254.396        279.83         32163
        0.255       254.176       280.342       32092.9
        0.265       253.903        280.81         32030
        0.275       253.629       281.278       31967.2
        0.285       253.356       281.746       31904.4
        0.295       253.082       282.214       31841.5
        0.305       252.809       282.683       31778.7
        0.315       252.535       283.151       31715.8
        0.325       252.262       283.619         31653
        0.335       251.988       284.087       31590.2