/*--------------------------------*- C++ -*----------------------------------*\
| =========                 |                                                 |
| \\      /  F ield         | OpenFOAM: The Open Source CFD Toolbox           |
|  \\    /   O peration     | Version:  v2012                                 |
|   \\  /    A nd           | Website:  www.openfoam.com                      |
|    \\/     M anipulation  |                                                 |
\*---------------------------------------------------------------------------*/
FoamFile
{
    version     2.0;
    format      ascii;
    class       surfaceScalarField;
    location    "32";
    object      phi;
}
// * * * * * * * * * * * * * * * * * * * * * * * * * * * * * * * * * * * * * //

dimensions      [0 3 -1 0 0 0 0];
oriented        oriented;


internalField   nonuniform List<scalar> 
4262
(
0.107138
0.47085
0.0955684
0.705156
0.06937
0.858501
0.0473243
1.02081
0.0309013
1.21494
0.0197211
1.4494
0.0123776
1.73321
0.00720908
2.0762
0.00329027
2.48916
-0.00020799
2.98579
-0.00377127
2.98586
-0.007743
2.48922
-0.0128873
2.07618
-0.0200066
1.73298
-0.0309903
1.4492
-0.0472508
1.21478
-0.0691506
1.02066
-0.0953746
0.858527
-0.107115
0.705326
0.470873
0.112906
0.357944
0.135341
0.68272
0.1205
0.873342
0.098012
1.0433
0.0747818
1.23817
0.0530745
1.47111
0.0347495
1.75153
0.0205252
2.09043
0.00916817
2.50052
-0.00104682
2.99601
-0.0111894
2.996
-0.0222145
2.50024
-0.0361264
2.09009
-0.0544721
1.75133
-0.0762718
1.471
-0.0996869
1.23819
-0.122433
1.04341
-0.136493
0.872587
-0.113397
0.68223
0.357476
0.0920885
0.265856
0.125066
0.649743
0.121263
0.877145
0.105098
1.05946
0.0866572
1.25661
0.067535
1.49023
0.0483958
1.77067
0.0303358
2.10849
0.014026
2.51683
-0.00162748
3.01166
-0.0170829
3.01145
-0.033166
2.51632
-0.0510311
2.10796
-0.069819
1.77012
-0.0882951
1.48948
-0.105843
1.25574
-0.120792
1.05836
-0.125411
0.877205
-0.0923428
0.649162
0.265134
0.0639606
0.201895
0.104787
0.608916
0.106495
0.875438
0.0950564
1.0709
0.0811536
1.27051
0.0666674
1.50472
0.0507095
1.78663
0.0336747
2.12552
0.0160139
2.53449
-0.00261318
3.03029
-0.0211117
3.02995
-0.0384066
2.53362
-0.0547777
2.12433
-0.0698581
1.7852
-0.083717
1.50334
-0.0974233
1.26945
-0.108945
1.06988
-0.106267
0.874527
-0.064539
0.607434
0.200595
0.0375277
0.164368
0.0809322
0.565511
0.0913922
0.864978
0.0841743
1.07812
0.0714061
1.28328
0.0593995
1.51672
0.0467031
1.79933
0.0322227
2.14
0.0157452
2.55097
-0.0032311
3.04926
-0.021927
3.04865
-0.037817
2.54951
-0.0515577
2.13807
-0.0638702
1.79751
-0.0754931
1.51496
-0.0876513
1.2816
-0.0941436
1.07637
-0.0826927
0.863076
-0.0381867
0.562928
0.162408
0.0195072
0.144861
0.0572179
0.5278
0.0726421
0.849554
0.0706545
1.08011
0.0619104
1.29202
0.0509748
1.52766
0.0397921
1.81051
0.0275056
2.15229
0.0129023
2.56557
-0.00441495
3.06658
-0.0213576
3.06559
-0.0350496
2.5632
-0.0464497
2.14947
-0.0565676
1.80763
-0.0665953
1.52499
-0.0745695
1.28958
-0.0757355
1.07754
-0.0591266
0.846467
-0.0201253
0.523926
0.142283
0.0105401
0.13432
0.0421499
0.496191
0.0582529
0.833451
0.0587761
1.07958
0.0529727
1.29783
0.0439536
1.53668
0.0338821
1.82058
0.0227298
2.16344
0.00996375
2.57834
-0.00547859
3.08202
-0.0206293
3.08074
-0.0326626
2.57523
-0.0428404
2.15965
-0.0517409
1.81653
-0.0597944
1.53304
-0.0644154
1.2942
-0.0625931
1.07572
-0.0447833
0.828657
-0.0113624
0.490505
0.13092
0.00658575
0.127735
0.0330405
0.469736
0.0494388
0.817052
0.0512081
1.07781
0.0465709
1.30247
0.0386653
1.54458
0.0292029
1.83004
0.0183393
2.17431
0.00636449
2.59031
-0.00708554
3.09547
-0.0199443
3.0936
-0.0307519
2.58604
-0.0400016
2.1689
-0.0480822
1.82461
-0.0545506
1.53951
-0.0576928
1.29734
-0.0544057
1.07243
-0.0360459
0.810298
-0.00752615
0.461986
0.123394
0.0047269
0.123008
0.0264025
0.44806
0.042202
0.801253
0.044482
1.07553
0.0402827
1.30666
0.0333479
1.55152
0.0248899
1.8385
0.014908
2.18429
0.00360436
2.60162
-0.00853697
3.10761
-0.0201121
3.10518
-0.0300295
2.59596
-0.038501
2.17737
-0.0451537
1.83126
-0.0504127
1.54477
-0.0530153
1.29994
-0.0486913
1.06811
-0.0301375
0.791744
-0.00586487
0.437713
0.117529
0.00349073
0.119517
0.0208556
0.430696
0.0358228
0.786286
0.0386762
1.07268
0.0346286
1.31071
0.0278176
1.55833
0.0197914
1.84653
0.0105087
2.19357
0.000149809
2.61197
-0.0110704
3.11883
-0.0215741
3.11568
-0.0301006
2.60449
-0.0371964
2.18446
-0.042847
1.83691
-0.0473549
1.54928
-0.0490705
1.30166
-0.0436001
1.06264
-0.0253961
0.77354
-0.00495059
0.417267
0.112579
0.0026065
0.116911
0.0160959
0.417206
0.0294211
0.77296
0.0325457
1.06956
0.0289596
1.3143
0.0226809
1.56461
0.0153708
1.85384
0.00700202
2.20194
-0.00253393
2.62151
-0.0132042
3.1295
-0.0228858
3.12536
-0.0303367
2.61194
-0.0360665
2.19019
-0.0410825
1.84193
-0.0450701
1.55326
-0.0459947
1.30258
-0.0393546
1.056
-0.0216725
0.755858
-0.00435954
0.399954
0.108219
0.00194342
0.114967
0.012111
0.407039
0.0239197
0.761152
0.0271136
1.06636
0.0237186
1.31769
0.0176097
1.57072
0.0105426
1.8609
0.00265151
2.20983
-0.00646484
2.63063
-0.0170602
3.1401
-0.026379
3.13468
-0.0327142
2.61827
-0.0371486
2.19463
-0.0406023
1.84538
-0.0431828
1.55585
-0.0428283
1.30223
-0.0354239
1.04859
-0.0187482
0.739182
-0.00405617
0.385262
0.104163
0.00118668
0.11378
0.00828256
0.399943
0.0177351
0.751699
0.0202999
1.0638
0.0171409
1.32085
0.011468
1.57639
0.0047812
1.86759
-0.00271914
2.21733
-0.0112592
2.63917
-0.0206862
3.14953
-0.0286279
3.14262
-0.0337356
2.62338
-0.0370025
2.1979
-0.0398353
1.84821
-0.0413446
1.55735
-0.0402917
1.30118
-0.0323362
1.04064
-0.0164209
0.723267
-0.00388274
0.372724
0.10028
0.00029208
0.113488
0.00391804
0.396317
0.0109995
0.744618
0.0131904
1.06161
0.0101158
1.32393
0.00462875
1.58188
-0.00213094
1.87435
-0.00971599
2.22492
-0.0177326
2.64718
-0.0255338
3.15733
-0.0315755
3.14866
-0.0354629
2.62727
-0.0380946
2.20053
-0.0395721
1.84969
-0.0395562
1.55734
-0.0372318
1.29885
-0.0285454
1.03195
-0.013869
0.70859
-0.00349258
0.362348
0.0967877
-0.000644804
0.114133
9.29777e-05
0.395579
0.00466548
0.740045
0.0054515
1.06082
0.00243988
1.32694
-0.00256215
1.58688
-0.00905017
1.88084
-0.0165233
2.23239
-0.0243154
2.65498
-0.0314279
3.16444
-0.0365082
3.15374
-0.0392189
2.62998
-0.0403873
2.2017
-0.0400561
1.84936
-0.0388573
1.55614
-0.035213
1.29521
-0.0259021
1.02264
-0.0120887
0.694777
-0.00313418
0.353393
0.0936535
-0.0018665
0.116
-0.00355755
0.39727
-0.00225622
0.738744
-0.00185944
1.06042
-0.00534069
1.33042
-0.010806
1.59234
-0.0174359
1.88747
-0.0248615
2.23982
-0.0326266
2.66274
-0.0394885
3.1713
-0.0434682
3.15772
-0.044526
2.63103
-0.043815
2.20098
-0.0421568
1.8477
-0.0394477
1.55343
-0.0341342
1.28989
-0.0240158
1.01252
-0.0111594
0.68192
-0.00306222
0.345296
0.0905913
-0.00302855
0.119028
-0.00704431
0.401286
-0.00923786
0.740937
-0.0113152
1.0625
-0.015228
1.33433
-0.0207905
1.59791
-0.0274504
1.89413
-0.0348038
2.24717
-0.0421077
2.67004
-0.0481391
3.17733
-0.050856
3.16044
-0.0502631
2.63044
-0.0476937
2.19842
-0.0446377
1.84465
-0.0404199
1.54921
-0.0342739
1.28375
-0.0237038
1.00195
-0.0112241
0.669441
-0.00320384
0.337276
0.0873875
-0.00400665
0.123035
-0.0110882
0.408367
-0.0161628
0.746012
-0.0201776
1.06652
-0.0254852
1.33964
-0.0324119
1.60483
-0.0401166
1.90183
-0.0478926
2.25494
-0.0550573
2.67721
-0.060037
3.18231
-0.0605526
3.16096
-0.0576738
2.62756
-0.0536657
2.19441
-0.0491377
1.84012
-0.0432746
1.54335
-0.0354387
1.27591
-0.0239756
0.990487
-0.0117535
0.657219
-0.00349185
0.329014
0.0838956
-0.00524027
0.128275
-0.0150345
0.418162
-0.0235865
0.754564
-0.0299141
1.07284
-0.0364376
1.34616
-0.0444411
1.61284
-0.053145
1.91054
-0.0619946
2.26379
-0.0696011
2.68482
-0.0739283
3.18664
-0.0728762
3.1599
-0.0683604
2.62305
-0.0619377
2.18798
-0.0550073
1.83319
-0.0476729
1.53602
-0.0388078
1.26705
-0.0266327
0.978312
-0.0135672
0.644153
-0.0040393
0.319486
0.0798563
-0.00634967
0.134625
-0.0182923
0.430104
-0.0299802
0.766252
-0.0391091
1.08197
-0.0479389
1.35499
-0.0578368
1.62273
-0.0683294
1.92103
-0.0786527
2.27412
-0.0872409
2.6934
-0.0918402
3.19124
-0.089539
3.1576
-0.0829114
2.61642
-0.0745718
2.17964
-0.0659409
1.82456
-0.0567162
1.52679
-0.0456693
1.256
-0.0311975
0.96384
-0.016272
0.629228
-0.00490387
0.308118
0.0749525
-0.00860176
0.143227
-0.0243986
0.445901
-0.0397638
0.781617
-0.0515378
1.09375
-0.0622436
1.3657
-0.074253
1.63474
-0.0868097
1.93359
-0.0990292
2.28634
-0.10898
2.70335
-0.113432
3.19569
-0.109537
3.15371
-0.101044
2.60793
-0.0904028
2.169
-0.0792133
1.81337
-0.0674846
1.51506
-0.0540102
1.24253
-0.0373038
0.947134
-0.0197702
0.611694
-0.00591146
0.294259
0.069041
-0.0106808
0.153907
-0.030266
0.465486
-0.0498109
0.801162
-0.0653639
1.1093
-0.0796004
1.37994
-0.0946471
1.64979
-0.110061
1.949
-0.124578
2.30085
-0.135347
2.71412
-0.139067
3.19941
-0.134025
3.14867
-0.123328
2.59723
-0.110243
2.15592
-0.0967046
1.79983
-0.0823667
1.50072
-0.0651306
1.22529
-0.044313
0.926316
-0.0233486
0.59073
-0.00692497
0.277836
0.062116
-0.0151603
0.169068
-0.0414561
0.491782
-0.0664381
0.826144
-0.0858939
1.12876
-0.102886
1.39693
-0.121104
1.66801
-0.139726
1.96762
-0.156448
2.31758
-0.168444
2.72612
-0.17181
3.20278
-0.163939
3.14079
-0.149962
2.58325
-0.13371
2.13967
-0.11618
1.7823
-0.0975924
1.48214
-0.0762961
1.20399
-0.0520779
0.902098
-0.0275662
0.566218
-0.00797962
0.258249
0.0541364
-0.0190232
0.188091
-0.0531587
0.525918
-0.0861689
0.859154
-0.111687
1.15427
-0.134409
1.41965
-0.157289
1.69089
-0.178734
1.98907
-0.196932
2.33577
-0.20831
2.7375
-0.208637
3.2031
-0.197554
3.12971
-0.18079
2.56649
-0.161263
2.12014
-0.140427
1.76146
-0.117964
1.45967
-0.0918248
1.17785
-0.0619589
0.872232
-0.0321035
0.536363
-0.00898307
0.235129
0.0451533
-0.0327009
0.220792
-0.0790509
0.572268
-0.120386
0.900489
-0.15238
1.18627
-0.180358
1.44763
-0.20633
1.71686
-0.229531
2.01227
-0.247554
2.3538
-0.257276
2.74722
-0.254745
3.20057
-0.23913
3.1141
-0.216959
2.54432
-0.192322
2.0955
-0.166143
1.73529
-0.138135
1.43167
-0.106885
1.1466
-0.0723578
0.837705
-0.0376089
0.501614
-0.0102223
0.207742
0.034931
-0.0470636
0.267855
-0.116829
0.642033
-0.173418
0.957077
-0.212185
1.22504
-0.244882
1.48033
-0.273097
1.74508
-0.295544
2.03471
-0.310593
2.36885
-0.314781
2.75141
-0.304382
3.19017
-0.281057
3.09077
-0.253765
2.51702
-0.225119
2.06686
-0.195451
1.70562
-0.163707
1.39992
-0.127219
1.11012
-0.0853314
0.795817
-0.0416411
0.457923
-0.0100623
0.176163
0.0248687
-0.0326789
0.300534
-0.0913394
0.700694
-0.143486
1.00922
-0.187227
1.26878
-0.228026
1.52112
-0.263359
1.78041
-0.297424
2.06878
-0.32759
2.39901
-0.349678
2.7735
-0.357667
3.19816
-0.34701
3.08011
-0.32164
2.49165
-0.285953
2.03117
-0.242544
1.66221
-0.19459
1.35197
-0.142722
1.05825
-0.0866924
0.739788
-0.0364988
0.40773
-0.0079814
0.147646
0.0168874
-0.0109572
0.311491
-0.0417819
0.731518
-0.079609
1.04705
-0.115827
1.30499
-0.15101
1.55631
-0.18464
1.81404
-0.216018
2.10016
-0.242311
2.4253
-0.25957
2.79075
-0.261028
3.19962
-0.241253
3.06034
-0.208378
2.45878
-0.170771
1.99356
-0.132193
1.62363
-0.0922494
1.31202
-0.0528427
1.01884
-0.0208588
0.707804
-0.00271046
0.389581
0.00103087
0.143905
0.0179182
0.00227365
0.309218
-0.0193244
0.753116
-0.046821
1.07455
-0.0754039
1.33358
-0.104343
1.58525
-0.133285
1.84298
-0.160796
2.12767
-0.183636
2.44814
-0.197664
2.80478
-0.19673
3.19869
-0.177492
3.0411
-0.148926
2.43021
-0.115
1.95964
-0.0767797
1.58541
-0.0390535
1.2743
-0.0073437
0.987132
0.0124229
0.688037
0.0142471
0.387757
0.00567662
0.152475
0.0235948
0.00256531
0.306652
-0.0085732
0.764255
-0.0287677
1.09474
-0.0524457
1.35725
-0.076749
1.60955
-0.101326
1.86756
-0.124814
2.15116
-0.144169
2.4675
-0.155095
2.81571
-0.151383
3.19498
-0.131768
3.02149
-0.103088
2.40153
-0.0688889
1.92544
-0.0355651
1.55209
-0.00807586
1.24681
0.0119802
0.967076
0.021624
0.678394
0.0181067
0.391275
0.00663519
0.163947
0.03023
0.00474826
0.301904
-0.00321844
0.772222
-0.0206483
1.11217
-0.0403855
1.37699
-0.0608891
1.63005
-0.0819683
1.88864
-0.102273
2.17146
-0.119176
2.4844
-0.128969
2.8255
-0.126365
3.19237
-0.109006
3.00413
-0.0828008
2.37533
-0.0557574
1.89839
-0.0302215
1.52655
-0.00526221
1.22185
0.0140891
0.947724
0.0212082
0.671274
0.0160174
0.396465
0.00545293
0.174511
0.035683
0.00577167
0.296133
0.000486764
0.777507
-0.0148776
1.12754
-0.0330351
1.39515
-0.051682
1.6487
-0.0705982
1.90756
-0.0888066
2.18967
-0.104077
2.49967
-0.112668
2.83409
-0.108666
3.18837
-0.091338
2.9868
-0.0699213
2.35391
-0.0464228
1.8749
-0.0215907
1.50172
-0.000557809
1.20082
0.0132701
0.933896
0.0184322
0.666112
0.0126175
0.40228
0.00399068
0.183138
0.0396736
0.00380503
0.292328
-0.000243921
0.781555
-0.0135898
1.14088
-0.029926
1.41149
-0.0469614
1.66574
-0.0643073
1.9249
-0.0812487
2.20661
-0.0957759
2.5142
-0.104428
2.84275
-0.103334
3.18728
-0.09003
2.9735
-0.0688948
2.33278
-0.045611
1.85161
-0.02536
1.48147
-0.00727192
1.18273
0.00587446
0.92075
0.0101164
0.66187
0.00786669
0.40453
0.00267112
0.188333
0.0423448
0.00256277
0.289765
-0.000755622
0.784874
-0.0128476
1.15297
-0.0282682
1.42691
-0.0446378
1.68211
-0.0611837
1.94145
-0.0773957
2.22282
-0.0914781
2.52828
-0.100328
2.8516
-0.0993056
3.18625
-0.0857121
2.9599
-0.0680401
2.3151
-0.0493925
1.83296
-0.0297804
1.46186
-0.0146217
1.16757
-0.00356187
0.90969
0.00169086
0.656618
0.000508464
0.405712
0.00025521
0.188587
0.0426
-0.000207534
0.289972
-0.00383855
0.788505
-0.0144229
1.16356
-0.0283477
1.44083
-0.0438295
1.69759
-0.0598095
1.95743
-0.0756543
2.23867
-0.0898874
2.54252
-0.0996722
2.86138
-0.100209
3.18679
-0.0897393
2.94943
-0.0723656
2.29773
-0.0536564
1.81426
-0.0388546
1.44705
-0.0242151
1.15293
-0.0139333
0.899408
-0.00796428
0.650649
-0.00417606
0.401924
-0.00124968
0.18566
0.0413503
-0.000697723
0.29067
-0.00568584
0.793493
-0.0158879
1.17376
-0.0289069
1.45385
-0.043796
1.71248
-0.0593833
1.97301
-0.0751748
2.25446
-0.0897727
2.55711
-0.100335
2.87194
-0.103009
3.18946
-0.0940093
2.94043
-0.0785508
2.28227
-0.0620904
1.79779
-0.0447451
1.42971
-0.0309846
1.13917
-0.0195361
0.88796
-0.011705
0.642818
-0.00699101
0.39721
-0.00210945
0.180779
0.0392408
-0.00262397
0.293294
-0.00804193
0.798911
-0.0175834
1.1833
-0.0298548
1.46612
-0.0440767
1.7267
-0.0594118
1.98835
-0.0754265
2.27047
-0.0907973
2.57248
-0.103192
2.88434
-0.108502
3.19477
-0.100831
2.93276
-0.0859667
2.26741
-0.0683648
1.78019
-0.0526604
1.414
-0.0387731
1.12528
-0.0276589
0.876846
-0.0183121
0.633471
-0.00899502
0.387893
-0.00274821
0.174532
0.0364926
-0.00389589
0.29719
-0.00947095
0.804486
-0.018833
1.19266
-0.0307564
1.47804
-0.0445155
1.74046
-0.0595619
2.0034
-0.0756125
2.28652
-0.0912734
2.58814
-0.104043
2.89711
-0.109811
3.20054
-0.104785
2.92774
-0.0919254
2.25455
-0.0766867
1.76495
-0.059794
1.39711
-0.045155
1.11064
-0.0315825
0.863273
-0.0202392
0.622128
-0.0109497
0.378603
-0.00322126
0.166804
0.0332713
-0.00442408
0.301614
-0.0108104
0.810872
-0.0200391
1.20189
-0.0314975
1.4895
-0.0447635
1.75372
-0.0595601
2.01819
-0.0757458
2.30271
-0.0924006
2.6048
-0.108048
2.91275
-0.119143
3.21164
-0.117853
2.92645
-0.105276
2.24197
-0.0853793
1.74506
-0.0677402
1.37947
-0.0510632
1.09397
-0.0378439
0.850054
-0.0252817
0.609565
-0.0118553
0.365177
-0.00331467
0.158263
0.0299567
-0.00448502
0.306099
-0.0113351
0.817722
-0.0206426
1.2112
-0.0319236
1.50078
-0.0449092
1.76671
-0.0594494
2.03273
-0.075698
2.31896
-0.0928703
2.62197
-0.108769
2.92865
-0.119381
3.22225
-0.119834
2.9269
-0.11051
2.23265
-0.0958725
1.73042
-0.0752105
1.35881
-0.0569971
1.07575
-0.0400108
0.833068
-0.0249916
0.594546
-0.0125374
0.352723
-0.00322551
0.148951
0.0267312
-0.0045529
0.310652
-0.0118753
0.825045
-0.021059
1.22038
-0.0320094
1.51173
-0.0446688
1.77937
-0.0590237
2.04709
-0.0753323
2.33527
-0.0929825
2.63962
-0.111113
2.94678
-0.127707
3.23884
-0.132553
2.93175
-0.12214
2.22223
-0.102416
1.7107
-0.0824662
1.33886
-0.0610478
1.05433
-0.0439127
0.815932
-0.0285501
0.579184
-0.012453
0.336626
-0.00285898
0.139357
0.0238722
-0.0045651
0.315217
-0.0119202
0.8324
-0.0209836
1.22945
-0.0317587
1.52251
-0.0442114
1.79182
-0.0583431
2.06122
-0.0745912
2.35151
-0.0927363
2.65777
-0.111522
2.96557
-0.127061
3.25438
-0.133224
2.93791
-0.128521
2.21753
-0.115055
1.69723
-0.0909262
1.31473
-0.066531
1.02994
-0.0419697
0.791371
-0.0223426
0.559557
-0.010043
0.324326
-0.00205194
0.131366
0.0218202
-0.00460486
0.319822
-0.0120142
0.839809
-0.0207866
1.23822
-0.0312102
1.53293
-0.0433521
1.80396
-0.057293
2.07516
-0.0735298
2.36775
-0.091952
2.67619
-0.111964
2.98558
-0.131972
3.27439
-0.144515
2.95045
-0.140236
2.21325
-0.12215
1.67914
-0.0992554
1.29184
-0.0696037
1.00029
-0.0427233
0.764491
-0.0199261
0.536759
-0.00552909
0.309929
-0.00225157
0.128088
0.0195687
-0.00453102
0.324353
-0.011755
0.847033
-0.0202946
1.24676
-0.0304448
1.54308
-0.0422885
1.81581
-0.0559563
2.08883
-0.0720534
2.38385
-0.0906556
2.69479
-0.11132
3.00625
-0.131447
3.29452
-0.143449
2.96245
-0.145538
2.21534
-0.13603
1.66963
-0.110205
1.26601
-0.0764128
0.966495
-0.0346705
0.722748
0.00453894
0.49755
0.0246082
0.28986
0.0219317
0.130765
0.0415004
-0.0044105
0.328763
-0.0115237
0.854147
-0.019725
1.25496
-0.0294606
1.55282
-0.0409116
1.82726
-0.0543058
2.10222
-0.0702408
2.39978
-0.0888903
2.71344
-0.110279
3.02764
-0.133785
3.31802
-0.151918
2.98058
-0.156838
2.22026
-0.144243
1.65704
-0.121361
1.24313
-0.0818434
0.926977
-0.0361553
0.67706
0.0162247
0.44517
0.0369541
0.26913
0.0161974
0.151522
0.0576978
-0.0041935
0.332957
-0.01105
0.861003
-0.0189781
1.26289
-0.0283627
1.5622
-0.0394577
1.83835
-0.0524773
2.11524
-0.0681382
2.41544
-0.0867993
2.7321
-0.108665
3.0495
-0.132378
3.34174
-0.150119
2.99833
-0.15918
2.22932
-0.159158
1.65702
-0.137777
1.22175
-0.0991509
0.888352
-0.0306956
0.608605
0.0720725
0.342402
0.168712
0.172491
0.174464
0.14577
0.232162
-0.00403787
0.336995
-0.0108195
0.867785
-0.0186165
1.27069
-0.0279175
1.5715
-0.0391357
1.84957
-0.0525955
2.1287
-0.0691464
2.432
-0.0893267
2.75228
-0.113802
3.07398
-0.14295
3.37088
-0.169915
3.02529
-0.185576
2.24498
-0.183966
1.65541
-0.168336
1.20612
-0.128485
0.848501
-0.0827669
0.562887
-0.10893
0.368565
-0.363382
0.426943
-0.929337
0.711725
0.89491
-1.59209
-0.00383146
0.340826
-0.0103627
0.874316
-0.0179775
1.2783
-0.0271211
1.58065
-0.0382017
1.86065
-0.0516953
2.1422
-0.06858
2.44888
-0.0896553
2.77336
-0.115991
3.10031
-0.147962
3.40285
-0.17695
3.05428
-0.198364
2.2664
-0.218107
1.67515
-0.219047
1.20706
-0.210217
0.839671
-0.289759
0.642428
-0.689527
0.768333
-1.41535
1.15277
-2.02856
1.32493
1.2195
-2.35315
-0.00362746
0.344454
-0.00990378
0.880592
-0.0172261
1.28562
-0.0261067
1.58953
-0.0370204
1.87156
-0.0505725
2.15575
-0.0677967
2.4661
-0.0896541
2.79522
-0.117672
3.12833
-0.153511
3.43869
-0.191392
3.09216
-0.224061
2.29907
-0.243379
1.69447
-0.25
1.21368
-0.337991
0.927662
-0.748128
1.05256
-1.5145
1.53471
-2.09421
1.73249
-2.33756
1.56827
1.33553
-2.45358
-0.00339757
0.347851
-0.00931332
0.886508
-0.0163786
1.29269
-0.0250462
1.5982
-0.035761
1.88228
-0.0492669
2.16925
-0.0666867
2.48352
-0.0892937
2.81782
-0.119055
3.15809
-0.158492
3.47813
-0.200822
3.13449
-0.236854
2.3351
-0.278856
1.73647
-0.369731
1.30456
-0.697198
1.25513
-1.41708
1.77245
-2.01429
2.13192
-2.25737
1.97556
-2.37258
1.68348
1.40168
-2.43873
-0.00313526
0.350986
-0.00868001
0.892053
-0.0153741
1.29938
-0.0237146
1.60654
-0.0342693
1.89283
-0.0477475
2.18273
-0.0653737
2.50115
-0.0885988
2.84105
-0.119813
3.18931
-0.162324
3.52064
-0.212246
3.18441
-0.263404
2.38626
-0.315058
1.78812
-0.491707
1.4812
-1.07754
1.84096
-1.76831
2.46322
-2.09926
2.46287
-2.25132
2.12762
-2.33505
1.76721
1.46777
-2.40114
-0.00302664
0.354013
-0.0084359
0.897462
-0.0151324
1.30608
-0.0235414
1.61495
-0.0343133
1.90361
-0.0480017
2.19642
-0.0660487
2.5192
-0.090133
2.86513
-0.123001
3.22217
-0.169768
3.56741
-0.227019
3.24166
-0.279713
2.43895
-0.375351
1.88376
-0.750849
1.8567
-1.47251
2.56262
-1.95664
2.94735
-2.15944
2.66567
-2.26727
2.23545
-2.34471
1.84465
1.53244
-2.40938
-0.00307801
0.357091
-0.00873512
0.903119
-0.0157308
1.31307
-0.0245129
1.62373
-0.0357858
1.91488
-0.0501315
2.21077
-0.0690367
2.5381
-0.0942786
2.89037
-0.129078
3.25697
-0.178586
3.61692
-0.237435
3.30051
-0.307569
2.50909
-0.496293
2.07249
-1.03212
2.39253
-1.66185
3.19235
-1.94741
3.23291
-2.09698
2.81524
-2.21281
2.35128
-2.30722
1.93907
1.59551
-2.37029
-0.00307465
0.360166
-0.00896837
0.909013
-0.0164221
1.32053
-0.0257316
1.63304
-0.0374939
1.92664
-0.052429
2.2257
-0.0721087
2.55778
-0.0985225
2.91679
-0.134944
3.2934
-0.188178
3.67015
-0.256609
3.36894
-0.349331
2.60181
-0.621419
2.34457
-1.24613
3.01724
-1.74394
3.69016
-1.95447
3.44344
-2.0983
2.95907
-2.22489
2.47786
-2.33871
2.05289
1.65561
-2.39881
-0.00300382
0.36317
-0.00917106
0.91518
-0.0169875
1.32834
-0.0267339
1.64278
-0.0390477
1.93895
-0.0547094
2.24136
-0.0752963
2.57837
-0.102899
2.94439
-0.141346
3.33184
-0.196965
3.72577
-0.266063
3.43804
-0.38983
2.72558
-0.762562
2.71731
-1.3901
3.64477
-1.75587
4.05593
-1.93315
3.62072
-2.03938
3.06531
-2.1323
2.57077
-2.20319
2.12378
1.6497
-2.19728
-0.00287648
0.366046
-0.0092276
0.921531
-0.0175793
1.3367
-0.0279398
1.65314
-0.0408109
1.95183
-0.0570721
2.25762
-0.0784438
2.59974
-0.10719
2.97314
-0.146942
3.37159
-0.20455
3.78338
-0.286647
3.52014
-0.455288
2.89422
-0.893186
3.15521
-1.44732
4.19891
-1.71588
4.3245
-1.87489
3.77973
-1.97237
3.16279
-1.97814
2.57654
-1.91584
2.06148
1.62513
-1.89126
-0.00253548
0.368581
-0.00918711
0.928183
-0.0178272
1.34534
-0.0285348
1.66385
-0.0418562
1.96515
-0.0586014
2.27437
-0.0803801
2.62152
-0.109413
3.00217
-0.149786
3.41197
-0.206796
3.84039
-0.291907
3.60525
-0.489557
3.09187
-0.961683
3.62733
-1.41169
4.64891
-1.58833
4.50114
-1.66064
3.85203
-1.66886
3.17102
-1.52551
2.43319
-1.02914
1.56511
0.595988
-0.0021581
0.37074
-0.00884473
0.934869
-0.018069
1.35456
-0.0295847
1.67537
-0.043824
1.97939
-0.0616815
2.29223
-0.0851278
2.64497
-0.116637
3.03368
-0.160299
3.45563
-0.223075
3.90316
-0.32638
3.70855
-0.575075
3.34056
-1.09959
4.15185
-1.46877
5.0181
-1.57095
4.60332
-1.573
3.85409
-1.47499
3.07301
-1.23898
2.19717
-0.646346
0.972476
-0.0503575
-0.00166724
0.372407
-0.00821689
0.941419
-0.0176482
1.36399
-0.029702
1.68742
-0.0448538
1.99454
-0.0640683
2.31144
-0.089281
2.67018
-0.123268
3.06767
-0.171224
3.50358
-0.241273
3.97321
-0.361058
3.82834
-0.658153
3.63766
-1.20495
4.69865
-1.48252
5.29567
-1.54921
4.67001
-1.53435
3.83922
-1.33596
2.87462
-0.79984
1.66105
-0.117152
0.289788
-0.167509
-0.000941206
0.373348
-0.00709801
0.947576
-0.0170102
1.3739
-0.0298797
1.70029
-0.045804
2.01046
-0.0659908
2.33163
-0.0927865
2.69697
-0.129178
3.10406
-0.180199
3.55461
-0.255413
4.04843
-0.397859
3.97078
-0.754424
3.99422
-1.291
5.23522
-1.47929
5.48395
-1.50849
4.69921
-1.42661
3.75734
-1.11714
2.56515
-0.330383
0.874289
0.0311624
-0.0717574
-0.136347
-3.3916e-05
0.373382
-0.00523724
0.952779
-0.0151187
1.38378
-0.0284048
1.71358
-0.0450748
2.02713
-0.0665335
2.35309
-0.0949218
2.72536
-0.133471
3.14261
-0.187468
3.6086
-0.272675
4.13363
-0.440093
4.1382
-0.846801
4.40093
-1.32208
5.7105
-1.44744
5.60932
-1.45902
4.7108
-1.25727
3.55559
-0.716445
2.02433
-0.0691129
0.226957
0.0342858
-0.175156
-0.102061
0.00177283
0.371609
-0.00220301
0.956755
-0.0126663
1.39425
-0.0267741
1.72769
-0.0438324
2.04419
-0.0659787
2.37523
-0.0955292
2.75491
-0.135656
3.18273
-0.191591
3.66454
-0.282589
4.22463
-0.472271
4.32788
-0.932459
4.86112
-1.32617
6.10421
-1.40051
5.68366
-1.36311
4.67339
-1.07767
3.27015
-0.35489
1.30155
-0.0129364
-0.114997
0.0087148
-0.196807
-0.0933464
0.00361056
0.367998
0.00145847
0.958907
-0.00849859
1.40421
-0.0223302
1.74152
-0.0397572
2.06162
-0.0628652
2.39834
-0.0934451
2.78549
-0.134854
3.22414
-0.193004
3.72269
-0.292176
4.3238
-0.504838
4.54054
-0.984679
5.34096
-1.27171
6.39124
-1.31224
5.72418
-1.20505
4.5662
-0.822411
2.88752
-0.105962
0.5851
0.0389156
-0.259874
0.0226288
-0.180521
-0.0707176
0.00583475
0.362164
0.00516263
0.959579
-0.00362354
1.41299
-0.0172368
1.75513
-0.0345328
2.07891
-0.0577171
2.42152
-0.0884719
2.81625
-0.130396
3.26607
-0.189542
3.78183
-0.292884
4.42714
-0.521929
4.76959
-0.99675
5.81578
-1.20612
6.60061
-1.22544
5.74351
-1.04018
4.38094
-0.50901
2.35635
-0.0053291
0.0814195
0.0151635
-0.280366
0.0161181
-0.181475
-0.0545995
0.008686
0.353478
0.0110362
0.957229
0.00484068
1.41919
-0.00732183
1.76729
-0.0250342
2.09663
-0.0482626
2.44475
-0.0788553
2.84684
-0.120163
3.30737
-0.179175
3.84084
-0.286873
4.53484
-0.53036
5.01308
-0.965655
6.25107
-1.09869
6.73364
-1.08043
5.72525
-0.851108
4.15162
-0.311129
1.81637
-0.0644025
-0.165307
-0.0369692
-0.3078
-0.00901534
-0.209429
-0.0636148
0.0127276
0.34075
0.0190443
0.950912
0.0145711
1.42366
0.00372796
1.77814
-0.0134878
2.11384
-0.0352645
2.46653
-0.0640532
2.87563
-0.103859
3.34718
-0.160785
3.89777
-0.268237
4.64229
-0.506465
5.25131
-0.88079
6.6254
-0.971131
6.82399
-0.949956
5.70407
-0.691325
3.89299
-0.150523
1.27556
-0.0600471
-0.255783
-0.0350639
-0.332783
-0.00885423
-0.235639
-0.0724691
0.0178548
0.322895
0.0298859
0.938881
0.0294486
1.4241
0.020208
1.78738
0.00485454
2.1292
-0.0146652
2.48605
-0.0417531
2.90272
-0.078304
3.38373
-0.130468
3.94994
-0.233068
4.74489
-0.453621
5.47186
-0.744938
6.91672
-0.807987
6.88703
-0.72716
5.62325
-0.435729
3.60155
0.0268619
0.812974
0.0332378
-0.262159
0.0246391
-0.324184
0.0262208
-0.23722
-0.0462482
0.0244014
0.298494
0.0434837
0.919799
0.0469333
1.42065
0.0403249
1.79398
0.0288089
2.14071
0.0117566
2.5031
-0.011479
2.92595
-0.0430631
3.41531
-0.0892324
3.9961
-0.177786
4.83345
-0.362868
5.65694
-0.556665
7.11051
-0.616928
6.9473
-0.568499
5.57482
-0.287647
3.3207
0.0210126
0.504314
-0.013101
-0.228045
0.00687422
-0.34416
0.0324552
-0.262801
-0.013793
0.0320152
0.266479
0.0608661
0.890948
0.072123
1.40939
0.0705578
1.79555
0.0622132
2.14906
0.048473
2.51684
0.0299583
2.94447
0.00501609
3.44026
-0.0319226
4.03304
-0.0914939
4.89302
-0.221057
5.7865
-0.341245
7.2307
-0.428742
7.03479
-0.511374
5.65745
-0.450743
3.26007
-0.51469
0.568262
-0.529166
-0.21357
-0.363427
-0.509899
-0.166668
-0.45956
-0.180461
0.0410043
0.225474
0.0819982
0.849954
0.101275
1.39011
0.10519
1.79164
0.10222
2.15203
0.0938875
2.52518
0.0828679
2.95549
0.0673085
3.45582
0.0452187
4.05513
0.0204258
4.91781
-0.00853037
5.81546
-0.0610704
7.28324
-0.133038
7.10676
-0.277008
5.80142
-0.504559
3.48762
-0.824231
0.887934
-0.830685
-0.207117
-0.626525
-0.714058
-0.308094
-0.777991
-0.488555
0.0495822
0.175892
0.106819
0.792717
0.1397
1.35723
0.152111
1.77923
0.155543
2.14859
0.152172
2.52855
0.149346
2.95831
0.146353
3.45881
0.148088
4.0534
0.157794
4.90811
0.235201
5.73805
0.337728
7.18071
0.361003
7.08349
0.325584
5.83684
0.0697694
3.74344
-0.391208
1.34891
-0.658557
0.0602316
-0.648011
-0.724604
-0.326532
-1.09947
-0.815087
0.0541712
0.121721
0.132846
0.714042
0.182697
1.30738
0.205903
1.75602
0.217712
2.13678
0.222766
2.52349
0.230154
2.95092
0.241767
3.4472
0.269293
4.02587
0.325493
4.85191
0.53857
5.52497
0.950822
6.76846
1.32393
6.71038
1.71997
5.44079
1.58285
3.88056
0.951154
1.98061
0.435717
0.575669
0.0701095
-0.358997
-0.0826986
-0.946662
-0.897786
0.0494536
0.0722674
0.157907
0.605589
0.234176
1.23111
0.27261
1.71759
0.294133
2.11526
0.307355
2.51027
0.324336
2.93394
0.351136
3.4204
0.407789
3.96922
0.528608
4.73109
0.871116
5.18247
1.55415
6.08543
1.98481
6.27972
2.27283
5.15277
2.27101
3.88238
1.84057
2.41105
1.35743
1.05881
0.863546
0.134891
0.328813
-0.411929
-0.568972
0.0376099
0.0346575
0.181339
0.461859
0.287904
1.12455
0.347754
1.65774
0.381046
2.08197
0.40588
2.48544
0.431963
2.90786
0.471166
3.38119
0.543435
3.89695
0.701481
4.57304
1.07271
4.81124
1.80173
5.3564
2.21585
5.8656
2.4577
4.91093
2.48774
3.85234
2.13122
2.76757
1.55858
1.63144
0.960343
0.733132
0.427885
0.120529
-0.141088
0.0289468
0.00571071
0.202926
0.28788
0.350549
0.976924
0.435372
1.57291
0.480583
2.03676
0.515527
2.45049
0.545464
2.87792
0.590443
3.33621
0.659656
3.82774
0.798079
4.43462
1.06078
4.54854
1.69875
4.71843
2.0831
5.48126
2.22528
4.76874
2.19455
3.88307
1.94441
3.01771
1.4675
2.10835
0.938088
1.26255
0.396823
0.661794
0.255736
0.029021
-0.0233103
0.19301
0.123891
0.407227
0.762708
0.529093
1.45105
0.590285
1.97557
0.634881
2.4059
0.666861
2.84594
0.704381
3.29869
0.747529
3.78459
0.834986
4.34716
0.975338
4.40819
1.39151
4.30226
1.80401
5.06875
1.84331
4.72944
1.75478
3.97159
1.54505
3.22744
1.17336
2.48004
0.726628
1.70928
0.298178
1.09024
0.553914
0.0311663
-0.0544766
0.135941
0.0191157
0.364948
0.533701
0.515732
1.30026
0.582095
1.9092
0.608023
2.37997
0.617518
2.83645
0.614008
3.3022
0.601198
3.7974
0.594644
4.35372
0.615063
4.38777
0.772727
4.1446
0.981569
4.85991
0.974655
4.73635
0.886979
4.05927
0.762361
3.35206
0.581551
2.66085
0.351816
1.93902
0.135178
1.30688
0.689092
0.0227571
-0.0772337
0.0676692
-0.0257964
0.20081
0.40056
0.326171
1.1749
0.401506
1.83387
0.437842
2.34363
0.459124
2.81517
0.464236
3.29709
0.461211
3.80042
0.455247
4.35968
0.444595
4.39842
0.524637
4.06456
0.673197
4.71135
0.677991
4.73156
0.604591
4.13267
0.50676
3.44989
0.379651
2.78796
0.220265
2.0984
0.0734
1.45375
0.762492
0.0166389
-0.0938726
0.0257684
-0.0349259
0.0700121
0.356316
0.150112
1.0948
0.219273
1.76471
0.268972
2.29393
0.306424
2.77771
0.329911
3.2736
0.342692
3.78764
0.339958
4.36241
0.318436
4.41994
0.347384
4.03561
0.44329
4.61545
0.448143
4.72671
0.395625
4.18519
0.315004
3.53051
0.22004
2.88292
0.109651
2.20879
0.0171099
1.54629
0.779602
0.000197318
-0.0940699
-0.0236911
-0.0110375
-0.0370242
0.369649
0.00208811
1.05569
0.0579861
1.70881
0.115572
2.23635
0.167031
2.72625
0.209826
3.23081
0.235008
3.76246
0.236908
4.36051
0.219488
4.43736
0.225851
4.02924
0.281532
4.55977
0.274915
4.73332
0.231528
4.22857
0.17364
3.5884
0.110149
2.94641
0.0442942
2.27465
-0.0136316
1.60421
0.76597
-0.0201436
-0.0739263
-0.067624
0.036443
-0.110732
0.412757
-0.108709
1.05367
-0.0598337
1.65994
0.00113783
2.17538
0.0565168
2.67088
0.105313
3.18201
0.13574
3.73203
0.149642
4.34661
0.140782
4.44622
0.141175