/*--------------------------------*- C++ -*----------------------------------*\
| =========                 |                                                 |
| \\      /  F ield         | OpenFOAM: The Open Source CFD Toolbox           |
|  \\    /   O peration     | Version:  v2012                                 |
|   \\  /    A nd           | Website:  www.openfoam.com                      |
|    \\/     M anipulation  |                                                 |
\*---------------------------------------------------------------------------*/
FoamFile
{
    version     2.0;
    format      ascii;
    class       volScalarField;
    location    "49";
    object      p;
}
// * * * * * * * * * * * * * * * * * * * * * * * * * * * * * * * * * * * * * //

dimensions      [0 2 -2 0 0 0 0];


internalField   nonuniform List<scalar> 
2200
(
0.776804
0.755304
0.739397
0.723729
0.709116
0.696591
0.686231
0.67812
0.672406
0.669441
0.66989
0.673677
0.680009
0.688561
0.699238
0.711995
0.726774
0.742672
0.758702
0.780203
0.709243
0.705985
0.703059
0.698936
0.693469
0.68699
0.680365
0.674402
0.669888
0.667479
0.667951
0.67123
0.676385
0.682824
0.689794
0.696537
0.702198
0.706311
0.709177
0.712528
0.66933
0.669549
0.671604
0.672947
0.673338
0.67248
0.670492
0.667806
0.665249
0.663741
0.664277
0.666705
0.669957
0.673162
0.67549
0.676494
0.676212
0.675194
0.673523
0.673277
0.646848
0.648296
0.650896
0.653351
0.655784
0.657796
0.658944
0.659165
0.658777
0.658462
0.659067
0.660419
0.661604
0.661978
0.66128
0.659602
0.657435
0.655216
0.652601
0.651195
0.632527
0.634501
0.637314
0.640138
0.642987
0.645807
0.648252
0.650096
0.651305
0.652083
0.652785
0.653225
0.652963
0.651833
0.649959
0.647575
0.645025
0.642304
0.639512
0.637585
0.625193
0.626792
0.628989
0.631514
0.634179
0.636839
0.639419
0.641818
0.643813
0.645294
0.646115
0.6461
0.645236
0.643705
0.641783
0.639626
0.637288
0.634943
0.632846
0.631269
0.621809
0.622834
0.624099
0.625956
0.628087
0.630239
0.632417
0.634689
0.636887
0.638698
0.639686
0.639664
0.638847
0.637609
0.636187
0.6346
0.632893
0.631308
0.630184
0.629168
0.619162
0.61983
0.620461
0.621762
0.623373
0.625049
0.626783
0.62868
0.630699
0.632612
0.633804
0.634056
0.633703
0.633054
0.632259
0.63129
0.630207
0.629268
0.628815
0.628139
0.615971
0.616416
0.616808
0.617797
0.61905
0.620423
0.6219
0.623534
0.625339
0.627241
0.628692
0.629422
0.629635
0.629541
0.629218
0.62872
0.628114
0.627557
0.62736
0.626897
0.612011
0.61231
0.612668
0.61353
0.614626
0.615876
0.617286
0.618866
0.620627
0.622586
0.624367
0.625613
0.626314
0.626627
0.626657
0.626462
0.626118
0.62576
0.625619
0.625298
0.607355
0.607557
0.607925
0.608751
0.609842
0.611147
0.612653
0.61435
0.616263
0.618435
0.620604
0.622306
0.623421
0.62404
0.624303
0.624331
0.624166
0.623951
0.623828
0.623595
0.602228
0.602373
0.602745
0.603552
0.604691
0.606112
0.60781
0.609773
0.612009
0.61457
0.617248
0.619443
0.620908
0.621787
0.622231
0.62241
0.622413
0.622332
0.62224
0.622057
0.596742
0.596851
0.597227
0.598041
0.599251
0.60083
0.602769
0.605083
0.60781
0.610974
0.614239
0.616894
0.618714
0.619861
0.620536
0.620899
0.621087
0.621132
0.62108
0.620924
0.59086
0.590928
0.591307
0.592153
0.593493
0.595266
0.597477
0.600182
0.603462
0.607333
0.611348
0.614571
0.616793
0.618318
0.619335
0.619963
0.620364
0.620533
0.620522
0.620376
0.584462
0.584502
0.584917
0.58582
0.587279
0.589247
0.591746
0.594867
0.598739
0.6034
0.608272
0.612322
0.615212
0.617246
0.618687
0.619654
0.62027
0.620573
0.62061
0.620471
0.57752
0.577482
0.57789
0.578872
0.580546
0.582751
0.585566
0.589168
0.593761
0.599393
0.60535
0.61037
0.61407
0.616734
0.61869
0.620064
0.620945
0.621404
0.621488
0.62135
0.569728
0.569705
0.57016
0.571279
0.573162
0.575675
0.578949
0.583182
0.588609
0.595361
0.602626
0.608805
0.613478
0.616931
0.619459
0.621269
0.622455
0.623077
0.623217
0.623072
0.560964
0.560991
0.561405
0.562602
0.564833
0.567807
0.571698
0.576726
0.583183
0.591288
0.600127
0.607796
0.613585
0.617906
0.621121
0.623407
0.624914
0.625699
0.625895
0.625741
0.55076
0.550734
0.551274
0.552703
0.555268
0.55881
0.56353
0.569647
0.577478
0.587306
0.59806
0.607383
0.614517
0.619834
0.623751
0.626579
0.628457
0.629409
0.629656
0.629484
0.538673
0.538603
0.539273
0.541094
0.544203
0.548521
0.554342
0.561936
0.571684
0.583782
0.596777
0.607856
0.616317
0.622721
0.627475
0.630892
0.633162
0.63429
0.634585
0.634396
0.524352
0.524236
0.525001
0.527221
0.531125
0.536565
0.543879
0.553406
0.565565
0.580398
0.595968
0.609108
0.619103
0.6267
0.632354
0.636504
0.639203
0.640506
0.640844
0.64063
0.506913
0.506819
0.507803
0.510551
0.515425
0.522306
0.531559
0.543486
0.558491
0.576535
0.595244
0.610959
0.622819
0.631793
0.638565
0.643469
0.646633
0.648131
0.64851
0.648264
0.48536
0.485197
0.486488
0.49003
0.496309
0.505204
0.51702
0.532063
0.550557
0.572356
0.594696
0.613343
0.62743
0.638063
0.646064
0.651883
0.655582
0.657259
0.657659
0.657366
0.457476
0.457481
0.459523
0.464445
0.472939
0.48488
0.500447
0.519691
0.542607
0.568882
0.59524
0.616943
0.633251
0.645614
0.654959
0.661757
0.665968
0.667803
0.668184
0.667835
0.420294
0.420529
0.424038
0.431862
0.444365
0.461243
0.482093
0.506807
0.535152
0.566588
0.597213
0.622038
0.64062
0.654683
0.665346
0.673055
0.677659
0.679545
0.679866
0.679461
0.370576
0.370964
0.3779
0.39097
0.409898
0.433941
0.461821
0.49319
0.527768
0.564952
0.600281
0.628371
0.649249
0.665086
0.677087
0.685561
0.690322
0.692041
0.692182
0.691815
0.304746
0.307562
0.322619
0.343839
0.371579
0.404423
0.440376
0.47917
0.520665
0.564291
0.604849
0.636892
0.660855
0.679046
0.692758
0.702451
0.707562
0.709101
0.709073
0.708898
0.229742
0.239143
0.264178
0.295216
0.33303
0.374866
0.418922
0.465334
0.514009
0.564338
0.610977
0.647914
0.675517
0.696557
0.712634
0.723694
0.729122
0.730308
0.730212
0.730198
0.162614
0.177374
0.208716
0.248479
0.295749
0.346405
0.398488
0.452637
0.508682
0.565916
0.618522
0.659656
0.690436
0.713955
0.731558
0.743727
0.749567
0.750608
0.750977
0.75096
0.111354
0.124566
0.161308
0.207241
0.261843
0.319983
0.379486
0.440985
0.504025
0.567792
0.625407
0.670725
0.704573
0.730192
0.749536
0.76276
0.768994
0.770772
0.770938
0.770964
0.0691122
0.0815637
0.121944
0.171853
0.23197
0.296103
0.362039
0.429977
0.499157
0.568807
0.631913
0.681141
0.717394
0.745185
0.765989
0.780023
0.786983
0.789202
0.789406
0.789532
0.0328162
0.0455633
0.0886895
0.141434
0.20581
0.274694
0.346014
0.419549
0.494509
0.570058
0.638311
0.690552
0.729382
0.758642
0.780629
0.795366
0.802592
0.805043
0.805302
0.805402
0.00116916
0.0141173
0.0593719
0.114686
0.18259
0.255401
0.33132
0.409803
0.489961
0.570497
0.642666
0.698544
0.739511
0.770176
0.792923
0.808151
0.815877
0.818489
0.81887
0.818943
-0.0271916
-0.0141489
0.0327022
0.0904748
0.161546
0.23777
0.317669
0.400411
0.484983
0.570158
0.646989
0.705794
0.748233
0.779901
0.803172
0.818898
0.826806
0.829707
0.830162
0.830217
-0.0531454
-0.0400334
0.00802537
0.0681428
0.141987
0.221217
0.304568
0.391
0.479662
0.569475
0.650192
0.711257
0.755657
0.788316
0.811963
0.827899
0.836244
0.83927
0.839801
0.839821
-0.0774933
-0.0640802
-0.0150849
0.0472069
0.123456
0.205316
0.291682
0.381468
0.473988
0.567784
0.652027
0.716358
0.762281
0.795629
0.819886
0.835843
0.844274
0.847398
0.847966
0.847894
-0.100391
-0.0868055
-0.0369232
0.0272781
0.105585
0.189793
0.278885
0.3717
0.467593
0.565051
0.653476
0.720765
0.768167
0.802673
0.827049
0.842894
0.851279
0.854363
0.854903
0.854726
-0.122045
-0.108389
-0.0577439
0.00807184
0.0881771
0.17452
0.266066
0.361536
0.460443
0.561583
0.65399
0.72422
0.773897
0.809173
0.833716
0.849432
0.857492
0.860538
0.861023
0.860934
-0.142835
-0.128997
-0.0777369
-0.0105537
0.0711172
0.159366
0.253078
0.350924
0.452652
0.557325
0.653638
0.727421
0.779489
0.815756
0.840279
0.855573
0.863467
0.866251
0.866724
0.866623
-0.163144
-0.148811
-0.0970798
-0.0287043
0.0543295
0.144255
0.239888
0.339928
0.444304
0.552245
0.652453
0.730037
0.784706
0.822446
0.847145
0.861942
0.869175
0.871671
0.872021
0.871926
-0.183101
-0.168049
-0.115874
-0.0464287
0.0377785
0.129177
0.22654
0.328605
0.435415
0.546411
0.650505
0.732015
0.789833
0.829657
0.854754
0.86872
0.875096
0.876765
0.876978
0.876868
-0.202601
-0.186812
-0.134182
-0.0637489
0.0214842
0.114179
0.213089
0.316977
0.425988
0.539768
0.647408
0.732968
0.794699
0.837272
0.863504
0.87661
0.88125
0.881533
0.88141
0.881306
-0.221542
-0.205147
-0.152001
-0.0806414
0.00549454
0.0993118
0.199558
0.305039
0.415996
0.532267
0.643303
0.733107
0.799063
0.8454
0.873854
0.886284
0.888638
0.88604
0.885508
0.886338
-0.239851
-0.222995
-0.169313
-0.0970846
-0.0101467
0.084622
0.185985
0.292841
0.405544
0.52403
0.638006
0.731902
0.802755
0.853668
0.885884
0.899168
0.899014
0.892347
0.887229
0.885757
-0.257525
-0.240302
-0.186072
-0.113044
-0.0253991
0.0701616
0.172441
0.280472
0.39471
0.515043
0.631478
0.729286
0.804977
0.861735
0.899442
0.916151
0.917188
0.905166
0.903903
0.908147
-0.274543
-0.25698
-0.20223
-0.128486
-0.04022
0.0559987
0.159026
0.268031
0.383543
0.505427
0.623891
0.724914
0.80553
0.868559
0.913474
0.937012
0.941744
0.913197
0.872538
0.836413
-0.290867
-0.273045
-0.217809
-0.143471
-0.0547027
0.0420246
0.145608
0.255329
0.37178
0.494925
0.615042
0.718472
0.80325
0.872976
0.926924
0.96059
0.980354
0.963227
0.980104
1.03803
-0.306439
-0.288515
-0.232896
-0.158136
-0.0690209
0.0280203
0.131915
0.242022
0.359
0.483004
0.604304
0.70918
0.797142
0.872196
0.931483
0.969476
0.982504
0.962245
0.921656
0.936001
-0.321247
-0.303381
-0.247436
-0.172412
-0.0830913
0.0140821
0.118062
0.228261
0.345389
0.469759
0.591602
0.696988
0.785362
0.861671
0.921414
0.958555
0.947986
0.895227
0.831718
0.819574
-0.335266
-0.317615
-0.261428
-0.186304
-0.096915
0.000205701
0.104061
0.214091
0.331009
0.45518
0.576768
0.681461
0.767651
0.839301
0.893179
0.903122
0.869064
0.793084
0.718993
0.697426
-0.348544
-0.331234
-0.274886
-0.19983
-0.110517
-0.0136223
0.0899209
0.199544
0.315903
0.439297
0.559804
0.662428
0.742984
0.802827
0.832117
0.820209
0.7637
0.66271
0.575761
0.554076
-0.361536
-0.344627
-0.288214
-0.213368
-0.124255
-0.0277124
0.0753783
0.184395
0.299859
0.421894
0.540475
0.639304
0.712452
0.756653
0.751949
0.71783
0.608214
0.486436
0.379479
0.352781
-0.375143
-0.358622
-0.302113
-0.227543
-0.138704
-0.0425464
0.0600224
0.168289
0.282599
0.40281
0.518575
0.611807
0.677814
0.698062
0.664604
0.577873
0.422688
0.270635
0.14186
0.114643
-0.389881
-0.373586
-0.316915
-0.242601
-0.154043
-0.0582556
0.0437573
0.151169
0.264118
0.382014
0.493848
0.58086
0.63637
0.628751
0.576294
0.427588
0.228422
0.0163694
-0.163319
-0.211371
-0.405871
-0.389664
-0.332667
-0.258553
-0.170254
-0.0748159
0.026604
0.133059
0.244477
0.359641
0.466357
0.54788
0.588342
0.549348
0.46248
0.27524
0.0444669
-0.243832
-0.56492
-0.712325
-0.423175
-0.406885
-0.349499
-0.275502
-0.187392
-0.0922979
0.00848723
0.113901
0.223637
0.33574
0.436604
0.512225
0.535042
0.4654
0.329664
0.124492
-0.109322
-0.452951
-1.03997
-1.61207
-0.441883
-0.425415
-0.367464
-0.29349
-0.205485
-0.110697
-0.010553
0.0937764
0.201748
0.310702
0.405586
0.473336
0.478045
0.391629
0.201203
-0.0323965
-0.235083
-0.469852
-1.02627
-2.54436
-0.462
-0.445234
-0.386685
-0.312665
-0.22469
-0.130216
-0.0307603
0.072406
0.178465
0.284118
0.373129
0.431417
0.41633
0.333951
0.108138
-0.130042
-0.278005
-0.315363
-0.305586
-0.69411
-0.483474
-0.466636
-0.407304
-0.333307
-0.245419
-0.151348
-0.0527438
0.0490302
0.152847
0.254587
0.33815
0.386172
0.355551
0.285405
0.0587935
-0.144031
-0.254946
-0.262883
-0.209668
-0.250061
-0.506116
-0.489319
-0.429353
-0.355502
-0.267735
-0.174221
-0.0766705
0.0234775
0.124699
0.221979
0.300934
0.339084
0.302004
0.232705
0.0270096
-0.134178
-0.216538
-0.224275
-0.272111
-0.276487
-0.530001
-0.513242
-0.452694
-0.379219
-0.291647
-0.198849
-0.102568
-0.00430151
0.0940169
0.186659
0.261054
0.28997
0.255426
0.17263
-0.000861277
-0.124539
-0.194836
-0.171094
-0.191856
-0.193399
-0.554783
-0.537859
-0.477295
-0.404389
-0.316979
-0.225164
-0.130373
-0.0342007
0.0609421
0.149048
0.218931
0.237205
0.214653
0.105179
-0.0355767
-0.119202
-0.159003
-0.20539
-0.180728
-0.189051
-0.580248
-0.562917
-0.502932
-0.43078
-0.343541
-0.252999
-0.15988
-0.0660022
0.025591
0.10949
0.175335
0.183546
0.17227
0.044685
-0.0724495
-0.137025
-0.115779
-0.175441
-0.155941
-0.160747
-0.605474
-0.58793
-0.529497
-0.458039
-0.370961
-0.282109
-0.190805
-0.0993773
-0.0117881
0.0683725
0.131371
0.132199
0.121241
-0.00744241
-0.0997211
-0.151487
-0.139093
-0.155715
-0.161034
-0.159396
-0.630086
-0.612684
-0.556108
-0.485393
-0.39895
-0.312121
-0.22272
-0.133881
-0.0506632
0.0259353
0.0874899
0.0844378
0.0649933
-0.0510364
-0.115231
-0.145943
-0.183146
-0.156613
-0.16333
-0.158079
-0.653056
-0.636389
-0.581771
-0.512071
-0.427077
-0.342469
-0.2551
-0.168978
-0.0901572
-0.0174717
0.0434537
0.0404327
0.00994072
-0.0887673
-0.132566
-0.122274
-0.192164
-0.141111
-0.155575
-0.148555
-0.673723
-0.658169
-0.605438
-0.537051
-0.454925
-0.372366
-0.287255
-0.204027
-0.12927
-0.0613338
-0.000921696
-0.00081943
-0.0376743
-0.107756
-0.146278
-0.108985
-0.152553
-0.131753
-0.137297
-0.134476
-0.690509
-0.676582
-0.626443
-0.559954
-0.48135
-0.400781
-0.318356
-0.238222
-0.166984
-0.104736
-0.0457386
-0.0411552
-0.0738792
-0.110773
-0.140729
-0.120781
-0.132271
-0.131698
-0.130306
-0.130064
-0.702572
-0.690725
-0.643684
-0.579729
-0.504796
-0.426815
-0.347403
-0.270592
-0.20246
-0.146399
-0.0891126
-0.0799481
-0.107226
-0.103962
-0.119214
-0.138766
-0.125551
-0.135447
-0.131173
-0.131423
-0.708504
-0.69905
-0.656146
-0.59533
-0.523968
-0.449278
-0.373294
-0.299939
-0.234702
-0.184321
-0.129096
-0.118259
-0.149058
-0.111023
-0.0625535
-0.109574
-0.0995851
-0.133502
-0.139136
-0.141263
-0.708209
-0.700875
-0.662135
-0.605013
-0.537638
-0.466825
-0.394616
-0.324838
-0.262617
-0.216557
-0.163734
-0.155924
-0.198056
-0.169279
-0.0531753
-0.0768272
-0.101017
-0.125836
-0.133114
-0.135861
-0.700708
-0.693448
-0.659899
-0.607791
-0.544985
-0.478386
-0.410117
-0.343637
-0.28419
-0.24029
-0.192586
-0.19435
-0.260793
-0.34958
-0.418659
-0.493316
-0.504372
-0.4693
-0.4368
-0.41628
-0.681332
-0.673227
-0.647087
-0.601925
-0.54476
-0.482868
-0.418645
-0.354794
-0.296388
-0.252886
-0.209217
-0.210819
-0.340338
-0.597859
-0.968398
-1.18089
-1.19952
-1.15654
-1.04698
-0.961226
-0.641615
-0.634026
-0.622406
-0.588057
-0.537505
-0.480284
-0.419891
-0.357155
-0.296691
-0.249402
-0.207653
-0.182292
-0.291714
-0.505309
-0.738137
-0.810811
-0.747867
-0.661953
-0.600531
-0.563617
-0.597975
-0.594613
-0.59296
-0.566466
-0.523925
-0.471798
-0.413808
-0.350708
-0.284403
-0.224788
-0.171563
-0.0848503
0.0146089
0.17484
0.317107
0.485016
0.625586
0.717601
0.778287
0.83302
-0.573168
-0.574053
-0.566193
-0.547261
-0.510642
-0.460812
-0.402286
-0.337052
-0.262031
-0.179655
-0.0944472
0.0564407
0.290062
0.663342
1.02039
1.30726
1.50586
1.62089
1.67347
1.68756
-0.541661
-0.542472
-0.537262
-0.529565
-0.497842
-0.449897
-0.389542
-0.320752
-0.238328
-0.139055
-0.0299163
0.119301
0.38171
0.738968
1.08998
1.37896
1.58517
1.7047
1.75793
1.77522
-0.516538
-0.515495
-0.51633
-0.511955
-0.486735
-0.441256
-0.37916
-0.305712
-0.21936
-0.113503
0.00162729
0.117527
0.356262
0.659544
0.960167
1.21928
1.41955
1.54094
1.595
1.61045
-0.498734
-0.496491
-0.498456
-0.492338
-0.477433
-0.436018
-0.372235
-0.295258
-0.207955
-0.104355
0.00455097
0.0849656
0.279874
0.534848
0.779551
0.990925
1.16091
1.26446
1.30956
1.32077
-0.488786
-0.486579
-0.485126
-0.481872
-0.475442
-0.432012
-0.366725
-0.288777
-0.204126
-0.110346
-0.00817733
0.051
0.198573
0.410682
0.604536
0.765148
0.89372
0.973412
1.00793
1.01689
-0.495417
-0.494366
-0.494091
-0.500733
-0.489374
-0.433276
-0.36294
-0.283956
-0.202439
-0.121335
-0.0253371
0.0242402
0.12771
0.297427
0.448442
0.567226
0.660389
0.720385
0.746173
0.751706
-0.502973
-0.504429
-0.509483
-0.515421
-0.495153
-0.431389
-0.35605
-0.276242
-0.198035
-0.129608
-0.0408087
0.00490888
0.07174
0.202538
0.318388
0.406411
0.473694
0.517535
0.535119
0.540432
-0.469926
-0.472886
-0.48113
-0.48472
-0.462509
-0.403266
-0.333546
-0.259666
-0.187252
-0.130595
-0.0518866
-0.00857704
0.033454
0.132515
0.21866
0.28204
0.331505
0.363711
0.377129
0.381714
-0.371751
-0.37621
-0.382418
-0.385729
-0.3698
-0.33045
-0.281654
-0.226689
-0.166366
-0.12155
-0.0570688
-0.0188428
0.0085572
0.085619
0.147694
0.191312
0.228286
0.252843
0.2625
0.264975
-0.243252
-0.246024
-0.249171
-0.251727
-0.244996
-0.228845
-0.205873
-0.175332
-0.13573
-0.102621
-0.0560403
-0.0246645
-0.00548915
0.0538756
0.0981592
0.128283
0.153066
0.168619
0.17532
0.176964
-0.128063
-0.129471
-0.131792
-0.135628
-0.13669
-0.13578
-0.131104
-0.119488
-0.099618
-0.0793094
-0.0498915
-0.0265533
-0.0107641
0.0329165
0.0627304
0.0830926
0.0973891
0.105206
0.107808
0.107903
-0.0430959
-0.0439904
-0.0458369
-0.0509381
-0.0587255
-0.0667462
-0.0717623
-0.0717945
-0.0656108
-0.0567448
-0.0403228
-0.0250096
-0.0122855
0.0172648
0.0361944
0.0479874
0.0549835
0.0576748
0.057308
0.0562599
0.00897405
0.00825383
0.00655217
0.000914743
-0.00954731
-0.0215513
-0.0311986
-0.0373863
-0.0387236
-0.0378132
-0.0297077
-0.0204332
-0.0116411
0.00484062
0.0154023
0.0213234
0.0239104
0.023551
0.0219061
0.020484
0.0349508
0.0343828
0.0328186
0.0274049
0.0172632
0.00485134
-0.00641135
-0.0153524
-0.0202943
-0.0238601
-0.0200958
-0.0154764
-0.0113348
-0.00388803
0.000406117
0.0023302
0.00265742
0.00107937
-0.00106236
-0.002541
0.0449311
0.0444817
0.0431717
0.0385483
0.0297628
0.0185571
0.0074066
-0.00235863
-0.008884
-0.0143124
-0.0129255
-0.0112733
-0.0110029
-0.00913361
-0.00860744
-0.00890468
-0.00982747
-0.0118044
-0.0138133
-0.0152903
0.0458163
0.0454883
0.0444701
0.0408811
0.0339669
0.0247999
0.0149193
0.00541691
-0.00161279
-0.00787613
-0.00810569
-0.00912191
-0.0109427
-0.0106766
-0.0118763
-0.0130451
-0.0151545
-0.0176975
-0.0195518
-0.0208844
0.042182
0.0419545
0.0412047
0.0385491
0.0334238
0.0264559
0.01848
0.0100949
0.0035952
-0.00324109
-0.00476081
-0.00705496
-0.0104788
-0.0107263
-0.0123745
-0.0144809
-0.0169135
-0.019215
-0.0207172
-0.0218439
0.0366343
0.0364896
0.0359528
0.034093
0.0304397
0.025334
0.0192704
0.012343
0.00688557
-0.000187739
-0.00268622
-0.00490924
-0.00800752
-0.00915332
-0.011121
-0.0134093
-0.015606
-0.0173299
-0.0183491
-0.0193493
0.0305355
0.0304328
0.0300422
0.0287482
0.0261656
0.0224657
0.0179204
0.012427
0.00820719
0.00165985
-0.00114832
-0.00367646
-0.00616552
-0.00689745
-0.00875975
-0.0108325
-0.0125641
-0.0137994
-0.0143892
-0.0152265
0.0248135
0.024731
0.0244486
0.0235391
0.0216999
0.0190056
0.0155007
0.0111103
0.00795358
0.00254879
-0.000258595
-0.00238312
-0.0049392
-0.00562074
-0.00678394
-0.00807554
-0.00922484
-0.0100569
-0.0103282
-0.0110269
0.0197162
0.0196471
0.0194359
0.018816
0.0175903
0.0156702
0.0131104
0.00969775
0.00725184
0.0026934
0.000331588
-0.00166681
-0.00401387
-0.00417249
-0.00495292
-0.00574807
-0.00636674
-0.00676614
-0.00684849
-0.00743472
0.0154427
0.0153762
0.0152125
0.0147695
0.0139289
0.0126084
0.0107987
0.00818402
0.00634006
0.0024541
0.000444218
-0.00197741
-0.00396829
-0.00301774
-0.00310914
-0.00312378
-0.00313741
-0.00319446
-0.00310457
-0.00365528
0.0119847
0.0119484
0.0118617
0.0115962
0.0110127
0.01001
0.00872568
0.00672475
0.00530462
0.00204089
0.000236028
-0.00192661
-0.00348522
-0.00257387
-0.00173798
-0.000792338
-0.000304085
-0.000161177
-0.000101808
-0.000633663
0.00879527
0.00874718
0.00867305
0.00851811
0.00815556
0.00748218
0.00661279
0.00512773
0.00428475
0.00181323
0.000329531
-0.00162527
-0.00271061
-0.00172974
-0.000684801
0.00043643
0.00140574
0.00178755
0.00187744
0.00135001
0.00590382
0.00585514
0.00579277
0.00572329
0.00550409
0.00511563
0.004588
0.00351915
0.003122
0.00136317
0.000572766
-0.00110288
-0.001828
-0.000848196
-6.24774e-05
0.000880993
0.0018521
0.00240279
0.00254641
0.00194047
0.00341539
0.00337378
0.00334521
0.00334881
0.00324641
0.00305217
0.00272297
0.00202067
0.00192993
0.000738406
0.00073083
-0.000155216
-0.000589681
-9.73817e-05
0.000206006
0.000728034
0.00142277
0.00195101
0.0022468
0.00179808
0.00130841
0.00127903
0.00125745
0.00122518
0.00116109
0.00114243
0.00101736
0.000641619
0.000864722
0.000247933
0.000709808
0.000666346
0.000426773
0.000524869
-3.54964e-05
-0.000615469
-0.00103955
-0.00137715
-0.000978508
-0.00100445
-1.0756
-0.234219
0.0358888
0.31267
0.494999
0.651789
0.779232
0.909072
1.05131
1.133
-0.0938187
0.313644
0.330739
0.519405
0.644067
0.75592
0.852278
0.938037
0.965604
0.923398
0.284316
0.498625
0.534307
0.670971
0.757382
0.837625
0.903792
0.953429
0.955617
0.969587
0.514561
0.658008
0.693255
0.795531
0.852506
0.910594
0.955558
0.987994
0.997101
1.02074
0.693122
0.794921
0.824688
0.892744
0.937191
0.978478
1.0107
1.03502
1.04483
1.07638
0.836826
0.905875
0.936248
0.97937
1.01554
1.04579
1.07015
1.09089
1.10506
1.13331
0.956272
1.00698
1.0326
1.06069
1.08844
1.11227
1.13227
1.15152
1.16643
1.19291
1.06024
1.09732
1.11845
1.13916
1.16001
1.17944
1.19685
1.21496
1.22984
1.25349
1.15436
1.18352
1.19988
1.21518
1.23132
1.24739
1.26294
1.27985
1.29346
1.31578
1.24272
1.26319
1.27806
1.29123
1.3048
1.31857
1.33207
1.34666
1.3582
1.37784
1.32819
1.34399
1.35781
1.36962
1.38152
1.39315
1.40429
1.41598
1.42365
1.44046
1.41343
1.42597
1.43967
1.45142
1.46205
1.47184
1.48066
1.48893
1.4925
1.50375
1.50216
1.51297
1.52644
1.53598
1.54355
1.55083
1.55803
1.56453
1.56561
1.57299
1.60056
1.60515
1.61335
1.61811
1.62151
1.626
1.63199
1.63968
1.64356
1.65344
1.71386
1.70077
1.69348
1.68775
1.68502
1.68637
1.69274
1.70511
1.71991
1.74958
1.83587
1.77984
1.74881
1.73162
1.7234
1.72334
1.73215
1.75174
1.78359
1.85284
)
;

boundaryField
{
    wall-4
    {
        type            zeroGradient;
    }
    pressure-outlet-7
    {
        type            fixedValue;
        value           uniform 0;
    }
    velocity-inlet-6
    {
        type            zeroGradient;
    }
    velocity-inlet-5
    {
        type            zeroGradient;
    }
    frontAndBackPlanes
    {
        type            empty;
    }
}


// ************************************************************************* //
