/*--------------------------------*- C++ -*----------------------------------*\
| =========                 |                                                 |
| \\      /  F ield         | OpenFOAM: The Open Source CFD Toolbox           |
|  \\    /   O peration     | Version:  v2012                                 |
|   \\  /    A nd           | Website:  www.openfoam.com                      |
|    \\/     M anipulation  |                                                 |
\*---------------------------------------------------------------------------*/
FoamFile
{
    version     2.0;
    format      ascii;
    class       surfaceScalarField;
    location    "74";
    object      phi;
}
// * * * * * * * * * * * * * * * * * * * * * * * * * * * * * * * * * * * * * //

dimensions      [0 3 -1 0 0 0 0];
oriented        oriented;


internalField   nonuniform List<scalar> 
4262
(
0.107131
0.470857
0.0955652
0.705152
0.0693717
0.858497
0.0473407
1.02079
0.0309429
1.21491
0.0197247
1.44944
0.0122837
1.7333
0.00701823
2.0763
0.00305083
2.48921
-0.000777238
2.98612
-0.00452338
2.98604
-0.00816725
2.48889
-0.013098
2.07597
-0.0202478
1.73301
-0.0311659
1.44914
-0.0472027
1.21455
-0.0689305
1.02049
-0.0951943
0.858567
-0.107066
0.705457
0.470923
0.112856
0.358001
0.135242
0.682765
0.120339
0.873399
0.0978074
1.04333
0.0745716
1.23815
0.0528496
1.47116
0.0344899
1.75166
0.0203543
2.09044
0.00911707
2.50045
-0.000864788
2.9961
-0.0109635
2.99614
-0.0224025
2.50033
-0.036538
2.0901
-0.0547926
1.75127
-0.0766029
1.47095
-0.100358
1.23831
-0.123556
1.04369
-0.137048
0.872059
-0.113579
0.681989
0.357343
0.0920354
0.265966
0.124951
0.649849
0.121066
0.877284
0.104734
1.05966
0.0860387
1.25685
0.0668513
1.49035
0.0478081
1.77071
0.0296176
2.10863
0.0129221
2.51714
-0.00298036
3.012
-0.0184765
3.01163
-0.0342687
2.51612
-0.0517707
2.1076
-0.0702629
1.76976
-0.0886272
1.48931
-0.105803
1.25548
-0.119852
1.05774
-0.125266
0.877473
-0.0923746
0.649097
0.264969
0.0639348
0.202031
0.104704
0.60908
0.106456
0.875532
0.0950854
1.07103
0.0811753
1.27076
0.0664505
1.50507
0.0503508
1.78681
0.0332713
2.12571
0.0156745
2.53474
-0.00297623
3.03066
-0.0217839
3.03044
-0.0393392
2.53367
-0.0557973
2.12406
-0.070912
1.78487
-0.0846427
1.50304
-0.0983218
1.26916
-0.110089
1.06951
-0.107077
0.87446
-0.0649233
0.606944
0.200045
0.0374566
0.164575
0.0806537
0.565883
0.0908667
0.865319
0.0836113
1.07829
0.0709246
1.28344
0.0589751
1.51702
0.0458304
1.79995
0.0306947
2.14084
0.0135645
2.55187
-0.00559405
3.04981
-0.0240421
3.04889
-0.0397036
2.54934
-0.0535619
2.13792
-0.0657163
1.79703
-0.076998
1.51432
-0.088914
1.28108
-0.0952374
1.07583
-0.0833606
0.862583
-0.0384518
0.562035
0.161594
0.0194294
0.145145
0.0570832
0.528229
0.0724107
0.849992
0.0702726
1.08042
0.06148
1.29223
0.0506577
1.52784
0.0395815
1.81103
0.0270612
2.15336
0.0120285
2.5669
-0.00577198
3.06761
-0.0234332
3.06655
-0.0380234
2.56393
-0.0495159
2.14941
-0.0593138
1.80683
-0.0690697
1.52408
-0.0766699
1.28868
-0.0774298
1.07659
-0.0601935
0.845347
-0.0204415
0.522283
0.141152
0.0105779
0.134567
0.0422025
0.496605
0.0582283
0.833966
0.0584107
1.08024
0.0521138
1.29853
0.042554
1.5374
0.0319467
1.82164
0.0203372
2.16497
0.00688366
2.58036
-0.00901763
3.08352
-0.0240786
3.08161
-0.0356204
2.57547
-0.045353
2.15915
-0.0542731
1.81575
-0.0621913
1.532
-0.0666902
1.29318
-0.064644
1.07454
-0.0461234
0.826827
-0.0117737
0.487933
0.129378
0.00651506
0.128052
0.0327563
0.470363
0.0488886
0.817834
0.0503171
1.07881
0.0452095
1.30364
0.0368629
1.54575
0.0272948
1.8312
0.0165518
2.17572
0.00452434
2.59238
-0.00966994
3.09771
-0.02346
3.0954
-0.034468
2.58648
-0.0435677
2.16825
-0.051084
1.82326
-0.057474
1.53839
-0.0605782
1.29628
-0.0568295
1.07079
-0.0375089
0.807506
-0.00795249
0.458377
0.121426
0.00465711
0.123395
0.026367
0.448653
0.042041
0.80216
0.0440324
1.07682
0.0392451
1.30843
0.031405
1.55359
0.0219938
1.84061
0.0110167
2.18669
-0.000975198
2.60438
-0.0138032
3.11054
-0.0252873
3.10689
-0.0347659
2.59595
-0.0429987
2.17648
-0.0499296
1.83019
-0.0552755
1.54373
-0.0573778
1.29838
-0.0521679
1.06558
-0.0322959
0.787634
-0.0064546
0.432536
0.114971
0.00366079
0.119734
0.0214069
0.430907
0.0363259
0.787241
0.038883
1.07426
0.0343936
1.31292
0.0269436
1.56104
0.018153
1.84941
0.00829632
2.19655
-0.00275234
2.61542
-0.0153356
3.12312
-0.0273453
3.11889
-0.0368065
2.60542
-0.0440469
2.18372
-0.0497525
1.8359
-0.0542958
1.54828
-0.0554135
1.2995
-0.0488906
1.05906
-0.0286654
0.767409
-0.00587127
0.409742
0.1091
0.0029864
0.116748
0.0173126
0.416581
0.0310985
0.773455
0.0339734
1.07139
0.0297169
1.31717
0.0224401
1.56832
0.0136288
1.85822
0.00312814
2.20705
-0.00890564
2.62746
-0.0210647
3.13528
-0.0313461
3.12918
-0.0392996
2.61337
-0.0458528
2.19027
-0.0511044
1.84115
-0.0547292
1.5519
-0.0546363
1.29941
-0.0465524
1.05098
-0.0260827
0.746939
-0.00565676
0.389316
0.103443
0.00225414
0.114494
0.0134353
0.4054
0.0256448
0.761246
0.028404
1.06863
0.0241641
1.32141
0.0168601
1.57562
0.00817758
1.8669
-0.00141781
2.21665
-0.0117333
2.63777
-0.0235244
3.14707
-0.0345977
3.14025
-0.0427326
2.6215
-0.0483506
2.19589
-0.0525474
1.84535
-0.0551934
1.55455
-0.0544416
1.29866
-0.044928
1.04146
-0.0242535
0.726265
-0.00553781
0.3706
0.0979055
0.00160112
0.112893
0.0102155
0.396785
0.0208282
0.750633
0.023332
1.06613
0.0190763
1.32567
0.0118819
1.58282
0.00317759
1.8756
-0.00704949
2.22687
-0.0189641
2.64969
-0.0314285
3.15954
-0.0411551
3.14998
-0.047618
2.62797
-0.0522915
2.20056
-0.055675
1.84873
-0.0571874
1.55606
-0.0553799
1.29685
-0.0443837
1.03047
-0.0232272
0.705108
-0.00553196
0.352905
0.0923735
0.000727118
0.112166
0.00671682
0.390796
0.0154546
0.741895
0.0172542
1.06433
0.0125644
1.33036
0.00484551
1.59053
-0.00442421
1.88487
-0.0146247
2.23707
-0.0252506
2.66031
-0.0363695
3.17065
-0.0460695
3.15968
-0.0524555
2.63435
-0.0562801
2.20439
-0.05897
1.85142
-0.0595774
1.55667
-0.0565932
1.29387
-0.0441842
1.01806
-0.0225716
0.683496
-0.0055093
0.335842
0.0868642
2.66917e-06
0.112163
0.0036708
0.387128
0.0100594
0.735507
0.0108939
1.06349
0.00582053
1.33543
-0.00206528
1.59842
-0.011454
1.89426
-0.022025
2.24764
-0.033846
2.67214
-0.0463263
3.18314
-0.0553957
3.16875
-0.0602758
2.63923
-0.063049
2.20716
-0.064569
1.85294
-0.0640723
1.55617
-0.0594689
1.28926
-0.0451646
1.00375
-0.0225994
0.66093
-0.00561681
0.31886
0.0812474
-0.000906347
0.113069
0.000262956
0.385958
0.0046347
0.731135
0.00431707
1.06381
-0.00165139
1.3414
-0.0106631
1.60743
-0.0212068
1.90481
-0.0326861
2.25912
-0.0444715
2.68392
-0.0550482
3.19371
-0.0626829
3.17638
-0.0673528
2.6439
-0.0695907
2.2094
-0.0706465
1.854
-0.069318
1.55484
-0.0629884
1.28293
-0.0467384
0.987504
-0.0230647
0.637257
-0.0058012
0.301596
0.0754462
-0.00192181
0.114991
-0.00322065
0.387257
-0.00209945
0.730014
-0.00408381
1.06579
-0.0108883
1.3482
-0.0204626
1.61701
-0.0314926
1.91584
-0.0434242
2.27106
-0.0556395
2.69614
-0.067755
3.20583
-0.0762233
3.18485
-0.0795422
2.64722
-0.0803801
2.21024
-0.0797946
1.85341
-0.0767222
1.55177
-0.0683826
1.27459
-0.0496008
0.968722
-0.0241652
0.611821
-0.00611667
0.283548
0.0693295
-0.00320806
0.118199
-0.00686899
0.390918
-0.00896198
0.732107
-0.0128071
1.06964
-0.0209081
1.3563
-0.0319556
1.62805
-0.0445175
1.9284
-0.0579914
2.28453
-0.0716042
2.70975
-0.0831471
3.21737
-0.0889115
3.19061
-0.0911204
2.64943
-0.0910333
2.21015
-0.0896626
1.85204
-0.0857062
1.54781
-0.0749259
1.26381
-0.0532091
0.947005
-0.0257049
0.584317
-0.0065222
0.264365
0.0628073
-0.00459244
0.122792
-0.0113318
0.397657
-0.0169971
0.737772
-0.0237807
1.07642
-0.0331652
1.36569
-0.0454477
1.64034
-0.0591396
1.94209
-0.0735928
2.29898
-0.0874868
2.72364
-0.0988296
3.22871
-0.105499
3.19728
-0.107426
2.65136
-0.106676
2.2094
-0.103388
1.84875
-0.0969454
1.54137
-0.0834382
1.25031
-0.0582403
0.921807
-0.0278149
0.553892
-0.00701409
0.243564
0.0557932
-0.00606796
0.128859
-0.0162567
0.407846
-0.0259166
0.747432
-0.0357248
1.08623
-0.047494
1.37746
-0.061905
1.65475
-0.0776867
1.95787
-0.0941166
2.31541
-0.109854
2.73938
-0.1224
3.24126
-0.127506
3.20239
-0.126826
2.65068
-0.123371
2.20595
-0.118682
1.84406
-0.110843
1.53353
-0.093635
1.2331
-0.0639816
0.892154
-0.0301828
0.520093
-0.00750897
0.22089
0.0482843
-0.00834031
0.1372
-0.0232017
0.422708
-0.0383276
0.762558
-0.0513928
1.0993
-0.0649809
1.39105
-0.0815268
1.67129
-0.09942
1.97576
-0.117662
2.33365
-0.134116
2.75583
-0.145856
3.253
-0.149504
3.20604
-0.14877
2.64994
-0.145349
2.20252
-0.138838
1.83755
-0.127427
1.52212
-0.106093
1.21176
-0.0712298
0.857291
-0.0329597
0.481823
-0.0080335
0.195964
0.0402508
-0.0108143
0.148014
-0.0304571
0.44235
-0.0515554
0.783656
-0.0698493
1.11759
-0.0873467
1.40854
-0.107035
1.69098
-0.127798
1.99653
-0.148122
2.35398
-0.165466
2.77318
-0.176822
3.26436
-0.179819
3.20903
-0.175956
2.64608
-0.168825
2.19539
-0.160056
1.82878
-0.146366
1.50843
-0.119694
1.18509
-0.078368
0.815965
-0.0353428
0.438797
-0.00833924
0.168961
0.0319115
-0.0156334
0.163648
-0.0428805
0.469597
-0.0710214
0.811797
-0.09436
1.14093
-0.115466
1.42965
-0.138784
1.7143
-0.162079
2.01982
-0.183764
2.37566
-0.201259
2.79067
-0.211728
3.27482
-0.211851
3.20916
-0.206359
2.64059
-0.1987
2.18774
-0.187678
1.81776
-0.16894
1.48969
-0.135836
1.15199
-0.0868256
0.766954
-0.0377097
0.389681
-0.00855041
0.139801
0.0233611
-0.0197351
0.183383
-0.055833
0.505695
-0.093517
0.849481
-0.124413
1.17182
-0.151751
1.45699
-0.180036
1.74258
-0.206641
2.04643
-0.229599
2.39862
-0.246266
2.80734
-0.25307
3.28163
-0.249509
3.20559
-0.241023
2.6321
-0.229535
2.17625
-0.215536
1.80376
-0.192996
1.46715
-0.151718
1.11071
-0.0932754
0.708511
-0.0385562
0.334962
-0.00819722
0.109442
0.0151639
-0.0332495
0.216632
-0.0830836
0.555529
-0.131682
0.898079
-0.169661
1.2098
-0.202365
1.48969
-0.234216
1.77444
-0.261289
2.0735
-0.282946
2.42028
-0.296505
2.8209
-0.299761
3.28488
-0.293136
3.19897
-0.281147
2.62011
-0.268093
2.16319
-0.25057
1.78624
-0.220023
1.43661
-0.168674
1.05936
-0.1
0.639837
-0.0390268
0.273989
-0.00775894
0.0781746
0.00740495
-0.0476155
0.264248
-0.122248
0.630162
-0.186772
0.962603
-0.232796
1.25583
-0.271442
1.52834
-0.30463
1.80762
-0.33004
2.09891
-0.348223
2.43846
-0.357363
2.83004
-0.354574
3.28209
-0.340845
3.18524
-0.324654
2.60392
-0.306589
2.14513
-0.283552
1.7632
-0.245806
1.39886
-0.181952
0.995507
-0.100489
0.558375
-0.036582
0.210082
-0.00728142
0.048874
0.000123532
-0.0346444
0.298892
-0.0992165
0.694734
-0.158051
1.02144
-0.206988
1.30476
-0.252303
1.57365
-0.292842
1.84816
-0.331229
2.1373
-0.366933
2.47416
-0.395908
2.85902
-0.41493
3.30112
-0.421526
3.19184
-0.416977
2.59937
-0.405867
2.13402
-0.380634
1.73797
-0.322944
1.34117
-0.225932
0.898496
-0.114138
0.44658
-0.0403095
0.136254
-0.00841859
0.0169831
-0.00829506
-0.0126977
0.31159
-0.0485959
0.730632
-0.0917766
1.06462
-0.132245
1.34523
-0.172325
1.61373
-0.208971
1.88481
-0.244104
2.17243
-0.27538
2.50544
-0.299624
2.88326
-0.313088
3.31458
-0.311665
3.19042
-0.301504
2.58921
-0.283954
2.11647
-0.252453
1.70647
-0.201797
1.29052
-0.12924
0.825939
-0.0584708
0.375811
-0.0218159
0.0995991
-0.00484183
9.06381e-06
-0.0131369
-0.000730842
0.312321
-0.0237866
0.753688
-0.0536755
1.09451
-0.0855764
1.37713
-0.119222
1.64738
-0.151752
1.91734
-0.181997
2.20268
-0.208093
2.53154
-0.227048
2.90221
-0.234383
3.32192
-0.227435
3.18347
-0.212516
2.57429
-0.192782
2.09673
-0.166233
1.67992
-0.12264
1.24692
-0.0671922
0.770491
-0.0271265
0.335745
-0.0117582
0.0842309
-0.00329635
-0.00845282
-0.0164332
0.00150848
0.310812
-0.0142442
0.76944
-0.0358541
1.11612
-0.0602644
1.40154
-0.0865346
1.67365
-0.113599
1.9444
-0.139499
2.22858
-0.161682
2.55372
-0.176654
2.91719
-0.179734
3.32499
-0.169602
3.17334
-0.153015
2.55771
-0.130969
2.07469
-0.0990154
1.64796
-0.0622927
1.2102
-0.0283027
0.736501
-0.0106415
0.318084
-0.00607349
0.0796629
-0.0024205
-0.0121058
-0.0188537
0.00542668
0.305385
-0.00202754
0.776895
-0.0208476
1.13494
-0.0429943
1.42369
-0.0660956
1.69675
-0.0890817
1.96739
-0.110902
2.2504
-0.129116
2.57193
-0.140384
2.92845
-0.140451
3.32506
-0.1274
3.16029
-0.106263
2.53657
-0.0808107
2.04924
-0.0556074
1.62276
-0.0257183
1.18031
-0.00138519
0.712168
0.00312648
0.313572
0.000571008
0.0822184
-0.000618155
-0.0109166
-0.0194719
0.00510368
0.300282
-0.000927619
0.782926
-0.016509
1.15052
-0.0345889
1.44177
-0.0538777
1.71604
-0.0735668
1.98708
-0.0923155
2.26915
-0.108035
2.58765
-0.117295
2.93771
-0.114746
3.32251
-0.0995377
3.14508
-0.0789821
2.51601
-0.0542654
2.02452
-0.0238852
1.59238
0.0014974
1.15493
0.0144028
0.699262
0.013377
0.314598
0.00615344
0.0894419
0.00123607
-0.00599927
-0.0182358
0.00549458
0.294787
0.00205672
0.786364
-0.0108051
1.16338
-0.0277517
1.45872
-0.0456602
1.73395
-0.0634199
2.00484
-0.0802534
2.28598
-0.0940747
2.60147
-0.101478
2.94512
-0.0979076
3.31894
-0.0826061
3.12978
-0.0593886
2.4928
-0.0323558
1.99749
-0.0104642
1.57049
0.00933991
1.13512
0.0207258
0.687876
0.0167411
0.318583
0.00838796
0.097795
0.00203698
0.000351706
-0.0161988
0.00282559
0.291962
-0.000181422
0.789371
-0.0114411
1.17464
-0.02586
1.47314
-0.041695
1.74978
-0.0578818
2.02102
-0.0732298
2.30133
-0.0859933
2.61424
-0.0929206
2.95204
-0.0888993
3.31492
-0.0729347
3.11381
-0.0522916
2.47215
-0.0299575
1.97515
-0.00295369
1.54349
0.016005
1.11617
0.0221027
0.681779
0.017863
0.322822
0.00917847
0.10648
0.00245249
0.00707769
-0.0137464
0.00234572
0.289616
0.000233797
0.791483
-0.0101311
1.185
-0.0237535
1.48676
-0.038953
1.76498
-0.0541663
2.03624
-0.0688417
2.316
-0.081145
2.62654
-0.0877611
2.95866
-0.0847808
3.31194
-0.0705443
3.09958
-0.0483348
2.44994
-0.0233644
1.95018
-0.00447695
1.5246
0.0121591
1.09953
0.0210748
0.672863
0.0167265
0.327171
0.00892733
0.114279
0.00251268
0.0134923
-0.0112337
-0.000339765
0.289956
-0.00381239
0.794955
-0.0127649
1.19396
-0.0246178
1.49861
-0.0384337
1.7788
-0.0528824
2.05069
-0.066948
2.33007
-0.0790926
2.63869
-0.0865243
2.96609
-0.084322
3.30974
-0.0695287
3.08478
-0.0499025
2.43032
-0.0302835
1.93056
-0.00654273
1.50086
0.0105394
1.08245
0.0161663
0.667236
0.0140559
0.329281
0.0077197
0.120615
0.00228863
0.0189234
-0.00894506
-0.000650723
0.290606
-0.00416203
0.798467
-0.0129614
1.20276
-0.0245268
1.51018
-0.03797
1.79224
-0.0518322
2.06455
-0.0657875
2.34402
-0.0784469
2.65134
-0.0867059
2.97435
-0.0862972
3.30933
-0.074228
3.07271
-0.0535932
2.40968
-0.0301789
1.90715
-0.0130011
1.48368
0.00234276
1.0671
0.011749
0.65783
0.010485
0.330545
0.00616828
0.124932
0.00193852
0.0231532
-0.00700654
-0.0020036
0.29261
-0.00734265
0.803806
-0.015625
1.21104
-0.0261241
1.52068
-0.0385609
1.80468
-0.0520415
2.07803
-0.0659571
2.35794
-0.0788911
2.66428
-0.0881226
2.98358
-0.0892031
3.31041
-0.0771143
3.06062
-0.0591462
2.39171
-0.0409787
1.88898
-0.0184414
1.46114
-0.00166352
1.05033
0.00531135
0.650855
0.00709438
0.328762
0.0044979
0.127528
0.00154536
0.0261057
-0.00546118
-0.00313598
0.295746
-0.00758434
0.808254
-0.015808
1.21926
-0.0264077
1.53128
-0.0387681
1.81704
-0.0519273
2.09119
-0.0658278
2.37184
-0.0793166
2.67777
-0.0899286
2.99419
-0.0938717
3.31435
-0.0851667
3.05192
-0.0673178
2.37386
-0.0435287
1.86519
-0.0257282
1.44334
-0.0101327
1.03473
0.00122025
0.639502
0.00381225
0.32617
0.00308168
0.128259
0.00117066
0.0280167
-0.00429052
-0.00391376
0.29966
-0.00973052
0.814071
-0.0178233
1.22736
-0.0276965
1.54115
-0.0393348
1.82868
-0.0522206
2.10407
-0.066178
2.3858
-0.0800916
2.69168
-0.0919909
3.00609
-0.0976928
3.32005
-0.0903066
3.04453
-0.0739713
2.35753
-0.0552099
1.84643
-0.0306501
1.41878
-0.0118043
1.01588
-0.00222285
0.629921
0.00218663
0.32176
0.00216583
0.12828
0.000965284
0.0292173
-0.00332524
-0.00394323
0.303603
-0.00952769
0.819655
-0.0176421
1.23547
-0.0276386
1.55114
-0.0393147
1.84035
-0.051989
2.11675
-0.0659217
2.39973
-0.0804209
2.70618
-0.093869
3.01954
-0.102646
3.32883
-0.0994377
3.04132
-0.083662
2.34175
-0.058145
1.82091
-0.0359441
1.39658
-0.0163074
0.996248
-0.00313984
0.616753
0.000939708
0.317681
0.00126808
0.127951
5.02121e-06
0.0304803
-0.00332022
-0.00413266
0.307736
-0.0107895
0.826312
-0.0188833
1.24356
-0.0282851
1.56055
-0.0393309
1.8514
-0.0517467
2.12916
-0.0657949
2.41378
-0.080788
2.72117
-0.0953566
3.03411
-0.105823
3.3393
-0.10425
3.03975
-0.0905678
2.32807
-0.0700914
1.80044
-0.0394573
1.36595
-0.0133202
0.970111
-0.000180355
0.603613
0.00646756
0.311033
0.00622179
0.128197
0.00289062
0.0338115
-0.000429603
-0.00402406
0.31176
-0.0102731
0.832561
-0.0182283
1.25152
-0.0277042
1.57002
-0.0387911
1.86249
-0.0510792
2.14145
-0.0650912
2.42779
-0.0804916
2.73657
-0.0963517
3.04997
-0.109765
3.35271
-0.112915
3.0429
-0.1008
2.31596
-0.0736602
1.7733
-0.043861
1.33615
-0.0128659
0.939116
0.00988048
0.580867
0.0157757
0.305138
0.00789364
0.136079
-0.0015451
0.0432502
-0.0019747
-0.00417591
0.315936
-0.0109917
0.839377
-0.0188095
1.25934
-0.0277408
1.57895
-0.0382324
1.87298
-0.050236
2.15346
-0.064288
2.44184
-0.0800679
2.75235
-0.0968179
3.06672
-0.111685
3.36758
-0.116919
3.04813
-0.107653
2.30669
-0.0868433
1.75249
-0.0482462
1.29755
-0.00614342
0.897013
0.0255761
0.549147
0.0473494
0.283364
0.0510184
0.13241
0.0298667
0.0644019
0.027892
-0.00403638
0.319972
-0.0102988
0.845639
-0.0178345
1.26687
-0.0267426
1.58786
-0.0372185
1.88345
-0.0490924
2.16533
-0.0630175
2.45577
-0.0789907
2.76833
-0.0966895
3.08442
-0.114063
3.38495
-0.123963
3.05803
-0.118076
2.3008
-0.0923618
1.72677
-0.0552563
1.26045
-0.00584424
0.847601
0.0401698
0.503133
0.0719691
0.251565
0.0576293
0.14675
0.0247747
0.0972564
0.0526667
-0.00401928
0.323991
-0.0106323
0.852252
-0.0179813
1.27422
-0.0263358
1.59622
-0.0362404
1.89336
-0.0477604
2.17685
-0.0616058
2.46961
-0.0778167
2.78454
-0.0961582
3.10276
-0.114736
3.40353
-0.12581
3.06911
-0.124254
2.29925
-0.107942
1.71046
-0.0658209
1.21832
-0.00811503
0.789895
0.0610693
0.433949
0.154775
0.157859
0.213105
0.0884201
0.188415
0.121946
0.241082
-0.00386515
0.327856
-0.0100121
0.858399
-0.0172496
1.28146
-0.0258373
1.6048
-0.0361936
1.90371
-0.0482747
2.18893
-0.0629707
2.48431
-0.0806669
2.80223
-0.101668
3.12376
-0.124946
3.42681
-0.142851
3.08701
-0.147298
2.30369
-0.12774
1.6909
-0.0884107
1.179
-0.0203416
0.721826
0.040135
0.373473
-0.033876
0.23187
-0.350449
0.404993
-0.946711
0.718207
0.903094
-1.60872
-0.00378013
0.331636
-0.0102281
0.864847
-0.0173885
1.28862
-0.0256411
1.61306
-0.0356608
1.91373
-0.0477392
2.20101
-0.0629066
2.49947
-0.0816772
2.821
-0.104527
3.14661
-0.13086
3.45314
-0.152737
3.10889
-0.162513
2.31347
-0.161075
1.68946
-0.12639
1.14431
-0.086092
0.681528
-0.193408
0.480788
-0.693966
0.732429
-1.45915
1.17018
-2.06259
1.32165
1.2151
-2.37459
-0.00355064
0.335187
-0.0094149
0.870711
-0.0162868
1.29549
-0.0245642
1.62133
-0.0347403
1.92391
-0.0470622
2.21333
-0.0626392
2.51505
-0.0822618
2.84063
-0.107052
3.1714
-0.137656
3.48375
-0.167265
3.1385
-0.185867
2.33207
-0.184176
1.68777
-0.158699
1.11883
-0.245228
0.768057
-0.752868
0.988429
-1.56572
1.54528
-2.11986
1.72432
-2.35633
1.55812
1.32828
-2.46952
-0.00346365
0.338651
-0.00940059
0.876648
-0.0161245
1.30221
-0.0240349
1.62924
-0.0338237
1.9337
-0.0460612
2.22557
-0.0619872
2.53098
-0.0825771
2.86122
-0.109189
3.19801
-0.14314
3.5177
-0.177842
3.1732
-0.204149
2.35838
-0.222048
1.70567
-0.291303
1.18809
-0.669429
1.14618
-1.45089
1.76989
-2.03406
2.12846
-2.27191
1.96216
-2.38394
1.67015
1.39124
-2.44689
-0.00315314
0.341804
-0.00843276
0.881928
-0.0147641
1.30855
-0.0226025
1.63708
-0.0325308
1.94363
-0.0449607
2.238
-0.0611975
2.54721
-0.0824822
2.8825
-0.110896
3.22643
-0.149224
3.55602
-0.192859
3.21684
-0.231522
2.39704
-0.263918
1.73807
-0.447833
1.372
-1.0993
1.79765
-1.79723
2.46781
-2.11162
2.44285
-2.25817
2.10871
-2.33979
1.75177
1.45748
-2.40604
-0.00316683
0.344971
-0.00872203
0.887483
-0.0151472
1.31497
-0.0228765
1.64481
-0.0327887
1.95354
-0.0453741
2.25058
-0.0621327
2.56397
-0.0845216
2.90489
-0.114843
3.25675
-0.156611
3.59779
-0.205909
3.26613
-0.24816
2.43929
-0.331451
1.82136
-0.734086
1.77464
-1.49561
2.55918
-1.96328
2.93548
-2.16272
2.64228
-2.26841
2.2144
-2.34569
1.82905
1.52047
-2.40868
-0.00321953
0.34819
-0.00861832
0.892882
-0.0152637
1.32162
-0.0236023
1.65315
-0.0343145
1.96425
-0.0477632
2.26403
-0.0654614
2.58167
-0.0890457
2.92847
-0.12149
3.28919
-0.167847
3.64415
-0.223824
3.32211
-0.282108
2.49758
-0.467055
2.00631
-1.04501
2.3526
-1.68164
3.19581
-1.95209
3.20593
-2.09812
2.78832
-2.21198
2.32826
-2.30574
1.92281
1.58197
-2.36723
-0.00336492
0.351555
-0.00958259
0.8991
-0.0168036
1.32884
-0.0254011
1.66175
-0.0362899
1.97514
-0.0501564
2.2779
-0.068696
2.60021
-0.0937578
2.95354
-0.128367
3.3238
-0.178341
3.69412
-0.23904
3.38281
-0.321646
2.58018
-0.605745
2.29041
-1.26389
3.01074
-1.74947
3.68138
-1.95653
3.41299
-2.09545
2.92724
-2.21949
2.4523
-2.32954
2.03287
1.64067
-2.38825
-0.00329413
0.354849
-0.00919041
0.904996
-0.016665
1.33631
-0.0260613
1.67114
-0.037952
1.98703
-0.0528435
2.29279
-0.0724486
2.61982
-0.0987536
2.97984
-0.135433
3.36048
-0.189305
3.74799
-0.256369
3.44987
-0.379046
2.70286
-0.768807
2.68017
-1.4096
3.65154
-1.75851
4.03029
-1.93079
3.58528
-2.03232
3.02877
-2.12108
2.54105
-2.18752
2.09931
1.63324
-2.18009
-0.00332611
0.358175
-0.0102624
0.911932
-0.0184688
1.34452
-0.0281068
1.68078
-0.0401183
1.99904
-0.0553739
2.30805
-0.0758015
2.64024
-0.103639
3.00768
-0.14247
3.39931
-0.198656
3.80418
-0.275109
3.52633
-0.444294
2.87205
-0.901861
3.13773
-1.459
4.20867
-1.71899
4.29029
-1.87006
3.73635
-1.96385
3.12256
-1.96432
2.54153
-1.89411
2.0291
1.59483
-1.8557
-0.00309977
0.361275
-0.00938159
0.918214
-0.0177097
1.35285
-0.0282104
1.69128
-0.0412939
2.01213
-0.0574899
2.32424
-0.0786184
2.66137
-0.106852
3.03591
-0.146237
3.4387
-0.20262
3.86056
-0.287363
3.61107
-0.490765
3.07545
-0.985023
3.63199
-1.42513
4.64877
-1.58926
4.45442
-1.65581
3.8029
-1.66017
3.12692
-1.51266
2.39401
-1.01376
1.5302
0.581074
-0.00271984
0.363995
-0.0103837
0.925878
-0.0196319
1.36209
-0.0304234
1.70207
-0.0438113
2.02551
-0.0608021
2.34123
-0.08356
2.68413
-0.114685
3.06704
-0.15825
3.48226
-0.220787
3.9231
-0.323066
3.71335
-0.57716
3.32954
-1.12012
4.17495
-1.47659
5.00524
-1.57535
4.55318
-1.57349
3.80104
-1.47016
3.02359
-1.2317
2.15556
-0.629346
0.927841
-0.0482724
-0.00242469
0.36642
-0.00863307
0.932086
-0.0177743
1.37124
-0.0297921
1.71409
-0.0449672
2.04069
-0.0639296
2.3602
-0.0889345
2.70913
-0.122671
3.10077
-0.170537
3.53013
-0.240006
3.99257
-0.362164
3.83551
-0.6763
3.64368
-1.23771
4.73636
-1.49617
5.2637
-1.55522
4.61223
-1.53305
3.77887
-1.33162
2.82216
-0.779951
1.60388
-0.108239
0.256129
-0.156512
-0.00147603
0.367896
-0.0092987
0.939909
-0.0194547
1.38139
-0.0316074
1.72625
-0.0467524
2.05583
-0.0662385
2.37968
-0.0927269
2.73562
-0.129484
3.13753
-0.18134
3.58199
-0.258423
4.06965
-0.406709
3.9838
-0.779245
4.01621
-1.31478
5.2719
-1.49044
5.43936
-1.52111
4.6429
-1.43334
3.6911
-1.0981
2.48693
-0.312144
0.81792
0.0247132
-0.0807275
-0.131799
-0.000931396
0.368827
-0.00602711
0.945005
-0.0155394
1.3909
-0.028979
1.73968
-0.0460857
2.07294
-0.0677474
2.40134
-0.0966545
2.76453
-0.135826
3.1767
-0.190746
3.63691
-0.276944
4.15585
-0.450928
4.15778
-0.888722
4.45401
-1.35916
5.74234
-1.47432
5.55452
-1.47757
4.64615
-1.25451
3.46803
-0.684618
1.91704
-0.0630568
0.196359
0.0299939
-0.173778
-0.101805
9.95239e-05
0.368728
-0.00585476
0.950959
-0.0161966
1.40125
-0.0295394
1.75303
-0.0459553
2.08936
-0.067743
2.42313
-0.0976506
2.79444
-0.139296
3.21835
-0.197426
3.69504
-0.292498
4.25092
-0.49338
4.35866
-0.980595
4.94122
-1.3533
6.11504
-1.41901
5.62023
-1.37284
4.59999
-1.08524
3.18043
-0.323218
1.15502
0.00331761
-0.130177
0.0140919
-0.184553
-0.0877126
0.00335392
0.365374
0.00111547
0.953197
-0.00880112
1.41116
-0.0233267
1.76755
-0.0416198
2.10765
-0.0657326
2.44724
-0.0979327
2.82664
-0.141369
3.26179
-0.202349
3.75602
-0.306012
4.35458
-0.531488
4.58414
-1.04241
5.45214
-1.318
6.39063
-1.35714
5.65938
-1.21918
4.46203
-0.770429
2.73167
-0.070144
0.454732
0.0435614
-0.243882
0.0237261
-0.164717
-0.0639866
0.00429927
0.361074
0.00239851
0.955098
-0.00745366
1.42102
-0.0209233
1.78102
-0.0376265
2.12435
-0.0612149
2.47083
-0.0934235
2.85885
-0.138491
3.30685
-0.202003
3.81953
-0.313138
4.46572
-0.569778
4.84078
-1.06383
5.94619
-1.25283
6.57963
-1.26378
5.67033
-1.04602
4.24427
-0.460329
2.14598
-0.0184404
0.0128437
-0.006735
-0.255588
0.00481394
-0.176266
-0.0591726
0.00871618
0.352358
0.0107643
0.95305
0.00489326
1.42689
-0.00818723
1.7941
-0.0271736
2.14334
-0.0526291
2.49629
-0.0865171
2.89273
-0.132074
3.35241
-0.197235
3.88469
-0.315052
4.58353
-0.591075
5.1168
-1.04031
6.39543
-1.16539
6.70471
-1.14881
5.65375
-0.890764
3.98622
-0.266016
1.52123
-0.0712955
-0.181877
-0.0391943
-0.287689
-0.014591
-0.200869
-0.0737637
0.0113463
0.341012
0.0160322
0.948364
0.010979
1.43194
0.000847226
1.80424
-0.0167282
2.16092
-0.039925
2.51948
-0.0720854
2.9249
-0.117666
3.39799
-0.183452
3.95047
-0.3044
4.70448
-0.589811
5.40221
-0.97687
6.78249
-1.04002
6.76787
-0.974106
5.58784
-0.676817
3.68893
-0.0735118
0.917929
0.0126998
-0.268088
-0.00175062
-0.273238
-0.00252932
-0.200091
-0.076293
0.0185286
0.322483
0.0309561
0.935937
0.0311844
1.43171
0.0209925
1.81443
0.00369426
2.17821
-0.0196179
2.5428
-0.0522653
2.95754
-0.0966158
3.44234
-0.160686
4.01455
-0.281919
4.82571
-0.557913
5.67821
-0.863371
7.08795
-0.900314
6.80481
-0.794828
5.48235
-0.439812
3.33391
0.0682798
0.409838
0.079727
-0.279535
0.0595664
-0.253078
0.0220133
-0.162538
-0.0542797
0.0243
0.298183
0.0425593
0.917677
0.0456567
1.42861
0.0392396
1.82084
0.0274087
2.19004
0.00711951
2.56309
-0.0215184
2.98618
-0.0627949
3.48362
-0.124073
4.07582
-0.238571
4.94021
-0.485442
5.92508
-0.70645
7.30895
-0.732671
6.83103
-0.636062
5.38574
-0.299606
2.99746
0.0143897
0.0958419
0.0276154
-0.292761
0.037181
-0.262643
0.01747
-0.142827
-0.0368097
0.035201
0.262982
0.0662821
0.886596
0.0791285
1.41577
0.0770673
1.82291
0.0665519
2.20056
0.0470113
2.58263
0.0193227
3.01387
-0.0189931
3.52193
-0.0736899
4.13052
-0.173306
5.03983
-0.372686
6.12446
-0.526552
7.46282
-0.550293
6.85477
-0.455079
5.29053
-0.187881
2.73026
-0.0723355
-0.0197035
-0.0485656
-0.316531
-0.0162803
-0.294929
0.00127297
-0.16038
-0.0355367
0.0447213
0.218261
0.0876295
0.843688
0.10807
1.39533
0.112912
1.81806
0.109353
2.20412
0.0964534
2.59553
0.076605
3.03372
0.0453025
3.55324
-0.00603226
4.18185
-0.0796314
5.11343
-0.216684
6.26151
-0.305503
7.55164
-0.31688
6.86615
-0.267383
5.24103
-0.115848
2.57872
-0.116374
-0.0191781
-0.0969017
-0.336003
-0.0602003
-0.33163
-0.0154475
-0.205133
-0.0509843
0.0579625
0.160299
0.121789
0.779862
0.160814
1.3563
0.175225
1.80365
0.176094
2.20325
0.165595
2.60602
0.149645
3.04967
0.126431
3.57645
0.0915568
4.21673
0.04185
5.16313
-0.0103222
6.31368
-0.0409551
7.58227
-0.0397712
6.86496
-0.00821394
5.20947
0.0141029
2.55641
-0.155796
0.150721
-0.152691
-0.339108
-0.0957278
-0.388593
-0.0182229
-0.282637
-0.0692072
0.0595107
0.100788
0.151353
0.688019
0.209088
1.29857
0.236714
1.77603
0.248886
2.19108
0.249537
2.60537
0.243971
3.05523
0.232332
3.58809
0.21306
4.236
0.191293
5.1849
0.232409
6.27257
0.290384
7.5243
0.3258
6.82955
0.303651
5.23162
0.157118
2.70294
-0.128362
0.436201
-0.199145
-0.268325
-0.135965
-0.451773
-0.032565
-0.386038
-0.101772
0.0485841
0.0522038
0.184822
0.551781
0.283656
1.19973
0.333357
1.72632
0.355027
2.16941
0.362134
2.59827
0.360449
3.05692
0.361159
3.58738
0.362657
4.2345
0.374049
5.17351
0.524001
6.12261
0.669146
7.37915
0.680188
6.81851
0.479662
5.43215
-0.00829364
3.1909
-0.359102
0.787009
-0.418017
-0.20941
-0.331994
-0.537796
-0.16667
-0.551362
-0.268442
0.0339801
0.0182237
0.218703
0.367058
0.348791
1.06965
0.42766
1.64746
0.470101
2.12697
0.495717
2.57265
0.504746
3.04789
0.518288
3.57384
0.540912
4.21188
0.593785
5.12064
0.80915
5.90725
1.12125
7.06705
1.24837
6.69139
1.23832
5.44219
0.738492
3.69073
0.0137673
1.51173
-0.400933
0.20529
-0.482755
-0.455974
-0.270914
-0.763203
-0.539356
0.0301547
-0.0119311
0.231782
0.165431
0.452328
0.849099
0.574702
1.52508
0.629554
2.07211
0.661985
2.54022
0.682342
3.02753
0.705546
3.55063
0.750722
4.1667
0.845039
5.02632
1.1628
5.58949
1.71942
6.51043
2.04899
6.36182
2.28617
5.20501
2.17857
3.79833
1.4154
2.27491
0.687013
0.933679
0.176296
0.0547429
-0.0379898
-0.548917
-0.577346
0.0223243
-0.0342553
0.153093
0.0346615
0.493627
0.508565
0.695725
1.32299
0.803452
1.96439
0.857717
2.48595
0.894551
2.9907
0.918835
3.52635
0.980346
4.10519
1.10274
4.90392
1.46565
5.22657
2.22295
5.75313
2.60194
5.98283
2.78086
5.02609
2.64339
3.93579
2.14239
2.77591
1.48559
1.59048
0.901533
0.6388
0.334777
0.0178383
-0.242568
0.00148302
-0.0357384
0.0750126
-0.0388681
0.406569
0.177008
0.723557
1.006
0.872018
1.81593
0.913818
2.44415
0.921951
2.98257
0.904957
3.54334
0.900128
4.11002
0.932794
4.87126
1.09316
5.06621
1.53571
5.31058
1.71383
5.80472
1.76084
4.97908
1.67323
4.0234
1.41028
3.03886
0.997757
2.003
0.584203
1.05235
0.250633
0.351409
0.00806473
0.00479695
-0.0405353
0.0424273
-0.0764985
0.199814
0.0196219
0.549953
0.655858
0.737061
1.62882
0.80424
2.37698
0.818954
2.96785
0.814747
3.54755
0.798327
4.12644
0.815458
4.85413
0.898033
4.98364
1.2109
4.99771
1.39081
5.6248
1.4088
4.96109
1.35191
4.0803
1.1856
3.20516
0.894407
2.29419
0.565566
1.3812
0.234149
0.682825
0.242214
-0.00145163
-0.0390837
0.00654393
-0.084494
0.0720229
-0.0458571
0.371717
0.356165
0.594791
1.40574
0.699654
2.27211
0.721888
2.94562
0.717767
3.55167
0.690916
4.15329
0.688142
4.8569
0.719316
4.95246
0.910556
4.80647
1.08024
5.45512
1.08117
4.96016
1.0281
4.13337
0.904696
3.32857
0.694304
2.50459
0.431642
1.64386
0.176503
0.937964
0.418718
-0.00606065
-0.033023
-0.00563125
-0.0849234
0.0283603
-0.0798487
0.23866
0.145865
0.472843
1.17156
0.578404
2.16655
0.612502
2.91152
0.616757
3.54741
0.585923
4.18413
0.558922
4.8839
0.562127
4.94926
0.670109
4.69849
0.809623
5.3156
0.799617
4.97017
0.742848
4.19014
0.64696
3.42445
0.498134
2.65341
0.306419
1.83557
0.118362
1.12602
0.53708
0.000694413
-0.0337175
0.0112502