/*--------------------------------*- C++ -*----------------------------------*\
| =========                 |                                                 |
| \\      /  F ield         | OpenFOAM: The Open Source CFD Toolbox           |
|  \\    /   O peration     | Version:  v2012                                 |
|   \\  /    A nd           | Website:  www.openfoam.com                      |
|    \\/     M anipulation  |                                                 |
\*---------------------------------------------------------------------------*/
FoamFile
{
    version     2.0;
    format      ascii;
    class       volScalarField;
    location    "26";
    object      p;
}
// * * * * * * * * * * * * * * * * * * * * * * * * * * * * * * * * * * * * * //

dimensions      [0 2 -2 0 0 0 0];


internalField   nonuniform List<scalar> 
2200
(
0.43467
0.413172
0.397264
0.381596
0.366987
0.354465
0.344105
0.335992
0.330266
0.327208
0.327561
0.331206
0.337381
0.345808
0.356393
0.369086
0.383808
0.399585
0.415552
0.437067
0.367112
0.363855
0.360934
0.356816
0.35135
0.344876
0.338241
0.332251
0.327692
0.32522
0.325546
0.328667
0.3337
0.340043
0.346928
0.353572
0.359186
0.363349
0.366269
0.369569
0.327188
0.327411
0.329469
0.330813
0.331212
0.33036
0.328371
0.325671
0.323045
0.321454
0.321828
0.324113
0.32725
0.330326
0.33257
0.333561
0.333239
0.332145
0.330333
0.330092
0.304684
0.306133
0.30875
0.311225
0.313679
0.315697
0.316866
0.317104
0.316703
0.316268
0.31673
0.317919
0.318904
0.319105
0.318276
0.316521
0.314265
0.311908
0.309277
0.307865
0.290464
0.292434
0.295267
0.298114
0.300964
0.303785
0.306219
0.30802
0.309185
0.309828
0.310354
0.310605
0.310144
0.308875
0.30684
0.304322
0.301679
0.298899
0.296093
0.294158
0.283262
0.284863
0.287068
0.289601
0.292263
0.29491
0.297427
0.299764
0.301657
0.302944
0.303562
0.30336
0.302308
0.30059
0.29853
0.29622
0.293794
0.291401
0.28927
0.287685
0.279851
0.280855
0.28215
0.284078
0.28628
0.28846
0.290616
0.292844
0.294954
0.296615
0.297366
0.297036
0.295944
0.294465
0.292853
0.29107
0.289168
0.287437
0.286242
0.285244
0.277466
0.278102
0.278783
0.280168
0.281862
0.28359
0.285322
0.287166
0.289068
0.290812
0.291707
0.291578
0.290907
0.290006
0.288941
0.287738
0.286422
0.285293
0.284731
0.284089
0.274802
0.275239
0.275696
0.276785
0.278142
0.279583
0.281058
0.282591
0.284184
0.285764
0.286873
0.287273
0.287188
0.286802
0.286184
0.285345
0.284418
0.283626
0.283308
0.282865
0.271149
0.271419
0.271855
0.272948
0.274316
0.275824
0.277408
0.278992
0.280557
0.282118
0.283522
0.284421
0.284746
0.284563
0.284009
0.283229
0.282413
0.281682
0.281392
0.281109
0.266913
0.267036
0.267476
0.268595
0.270032
0.271699
0.273568
0.275533
0.277508
0.279416
0.281144
0.282245
0.282591
0.282349
0.281749
0.281031
0.280244
0.279543
0.279272
0.279143
0.262772
0.262798
0.263206
0.264204
0.265534
0.267147
0.269036
0.271188
0.273579
0.276054
0.278168
0.279445
0.279889
0.279884
0.27958
0.279094
0.278522
0.278034
0.277842
0.277803
0.258766
0.258698
0.259098
0.259888
0.261063
0.26251
0.264212
0.26626
0.268769
0.271633
0.274293
0.276191
0.277344
0.277956
0.278149
0.278048
0.27783
0.277613
0.277497
0.277484
0.254707
0.254606
0.254963
0.255653
0.256809
0.258254
0.259975
0.262096
0.264718
0.267903
0.2712
0.273877
0.275768
0.276941
0.27758
0.277862
0.277959
0.277952
0.277913
0.277902
0.250353
0.250329
0.250609
0.251329
0.252565
0.254162
0.256182
0.258724
0.261844
0.265643
0.26967
0.272973
0.275287
0.276821
0.277841
0.27846
0.278768
0.278897
0.278931
0.278924
0.245351
0.245337
0.245626
0.246381
0.247686
0.249425
0.25175
0.254819
0.258693
0.263459
0.268488
0.272574
0.275446
0.277462
0.278888
0.279795
0.280319
0.280619
0.280725
0.280713
0.239385
0.239342
0.239689
0.24046
0.241748
0.243606
0.246201
0.249731
0.254378
0.260271
0.266607
0.27188
0.275696
0.278456
0.280433
0.281764
0.282623
0.283122
0.283293
0.283257
0.231913
0.231858
0.232232
0.23315
0.23466
0.236828
0.239876
0.244061
0.24965
0.256834
0.264728
0.2714
0.27637
0.279979
0.282576
0.28438
0.285585
0.286273
0.28652
0.286467
0.222977
0.222909
0.223344
0.224448
0.226335
0.229087
0.232942
0.238187
0.245137
0.253998
0.263688
0.271892
0.278013
0.282474
0.28569
0.28793
0.28944
0.290278
0.290578
0.290507
0.212151
0.212102
0.212691
0.214113
0.216513
0.220018
0.224922
0.231578
0.240359
0.251407
0.263266
0.273268
0.280662
0.286081
0.289927
0.292607
0.294394
0.295375
0.295746
0.295666
0.198891
0.198797
0.199542
0.201372
0.20447
0.208973
0.215243
0.223745
0.234822
0.248565
0.26309
0.275241
0.284189
0.290723
0.295374
0.298647
0.300822
0.30201
0.302441
0.302329
0.182256
0.182204
0.183249
0.185651
0.189684
0.195566
0.203746
0.214641
0.228606
0.245607
0.263279
0.277924
0.288703
0.296575
0.302232
0.306197
0.308793
0.310205
0.310721
0.310583
0.161437
0.161319
0.16276
0.166034
0.171498
0.179453
0.190237
0.204355
0.22197
0.242859
0.264175
0.281675
0.29454
0.303913
0.310655
0.315416
0.318575
0.320293
0.320893
0.320697
0.133983
0.134141
0.136462
0.141249
0.149019
0.160026
0.174594
0.192971
0.21508
0.240577
0.266044
0.286674
0.301775
0.312829
0.320857
0.326553
0.330315
0.332321
0.333
0.33277
0.0975019
0.0979262
0.101789
0.109474
0.121123
0.137017
0.156799
0.180534
0.208077
0.238885
0.268912
0.292944
0.310503
0.323383
0.332815
0.33961
0.344169
0.346626
0.34741
0.347047
0.0486671
0.0492219
0.0566368
0.0695958
0.0876517
0.110441
0.136967
0.167349
0.201243
0.237937
0.272872
0.300479
0.32062
0.335479
0.346496
0.354552
0.360008
0.362817
0.363575
0.36313
-0.017094
-0.0140312
0.00192073
0.0238934
0.0507334
0.0816567
0.116075
0.153992
0.194957
0.23829
0.278849
0.310766
0.334265
0.351854
0.365109
0.375101
0.38218
0.385626
0.386355
0.386086
-0.0930697
-0.0825016
-0.0554621
-0.0236664
0.0128924
0.0527075
0.0952652
0.140958
0.189271
0.239661
0.286474
0.32346
0.351065
0.372091
0.388329
0.400794
0.410262
0.415144
0.416609
0.41692
-0.159564
-0.143395
-0.109649
-0.0696062
-0.023935
0.0244546
0.0751215
0.128529
0.184114
0.241427
0.294287
0.336031
0.367095
0.390947
0.409477
0.423814
0.434396
0.44062
0.442707
0.442726
-0.209071
-0.194886
-0.155923
-0.11011
-0.0574345
-0.0019381
0.0560384
0.116668
0.179189
0.24309
0.301478
0.347208
0.381117
0.407067
0.427314
0.442954
0.454138
0.460454
0.462553
0.46271
-0.24981
-0.236573
-0.194397
-0.144802
-0.0869115
-0.0257717
0.0384271
0.105422
0.174174
0.243978
0.307358
0.356581
0.392874
0.420187
0.440985
0.456889
0.468507
0.475076
0.477467
0.47767
-0.285024
-0.271503
-0.227053
-0.174721
-0.112817
-0.0471291
0.0222393
0.0946033
0.168787
0.243984
0.311971
0.364336
0.402175
0.430185
0.451588
0.467931
0.479668
0.486594
0.489174
0.489362
-0.315835
-0.302224
-0.255838
-0.201203
-0.13598
-0.0665128
0.0071638
0.0841198
0.163183
0.243401
0.315445
0.370112
0.409232
0.438216
0.45993
0.476388
0.488553
0.495629
0.498398
0.498538
-0.343622
-0.329979
-0.281935
-0.225133
-0.157038
-0.0844366
-0.00712013
0.0738625
0.15729
0.241863
0.317549
0.374686
0.415493
0.445105
0.467286
0.48402
0.496015
0.503376
0.505829
0.505726
-0.369053
-0.355483
-0.306148
-0.247199
-0.176495
-0.101264
-0.0208543
0.0636243
0.150887
0.239375
0.318772
0.378698
0.420867
0.451504
0.474146
0.490985
0.502875
0.509951
0.512548
0.512481
-0.393057
-0.379188
-0.328899
-0.267947
-0.194872
-0.117344
-0.0342647
0.0532478
0.143942
0.236327
0.31967
0.382428
0.426276
0.45783
0.480798
0.497595
0.509508
0.516472
0.51909
0.519142
-0.415643
-0.401621
-0.350559
-0.287776
-0.212662
-0.133011
-0.0475242
0.0426863
0.136526
0.232625
0.319704
0.385488
0.43163
0.464161
0.487523
0.504459
0.516363
0.523121
0.525809
0.525857
-0.436984
-0.422979
-0.371317
-0.307008
-0.230161
-0.148513
-0.0607804
0.0318973
0.128653
0.228236
0.319354
0.388599
0.436733
0.470376
0.494429
0.511566
0.523504
0.530225
0.532707
0.532739
-0.457541
-0.443349
-0.391317
-0.325806
-0.247525
-0.164015
-0.0741591
0.0208473
0.120352
0.223375
0.318343
0.390858
0.441434
0.476946
0.501692
0.519028
0.530859
0.537286
0.539726
0.539699
-0.477807
-0.463039
-0.410707
-0.344178
-0.264719
-0.179552
-0.0877362
0.00944068
0.111426
0.217365
0.315737
0.391992
0.446031
0.483642
0.509456
0.526937
0.538502
0.54472
0.546832
0.546682
-0.497768
-0.482192
-0.429554
-0.3621
-0.281677
-0.195104
-0.101573
-0.00246888
0.101748
0.210448
0.312714
0.392907
0.450273
0.490551
0.517934
0.535727
0.546647
0.551993
0.553782
0.553544
-0.51729
-0.500972
-0.447903
-0.379526
-0.298277
-0.210567
-0.115616
-0.0147943
0.0914645
0.202752
0.308009
0.391954
0.45372
0.497559
0.527267
0.545677
0.555502
0.559645
0.560494
0.560196
-0.536173
-0.51931
-0.465753
-0.396462
-0.314466
-0.225829
-0.129724
-0.0274859
0.0804808
0.193749
0.301849
0.39051
0.456455
0.504457
0.537532
0.557633
0.566531
0.566836
0.56608
0.56651
-0.554412
-0.537159
-0.483071
-0.412905
-0.330207
-0.240808
-0.143814
-0.0404893
0.0689188
0.184121
0.295272
0.387486
0.457845
0.510925
0.548555
0.571816
0.58126
0.577282
0.572014
0.569691
-0.571961
-0.554399
-0.499811
-0.42885
-0.3455
-0.255455
-0.157741
-0.0535074
0.0571187
0.174154
0.287266
0.382158
0.457269
0.516087
0.559937
0.588682
0.602804
0.593396
0.588328
0.593095
-0.588848
-0.570983
-0.515914
-0.444262
-0.360323
-0.269701
-0.171383
-0.0664462
0.0451543
0.163432
0.278027
0.37574
0.454834
0.519094
0.570051
0.60694
0.630257
0.611752
0.567202
0.522861
-0.604999
-0.586901
-0.531411
-0.459207
-0.374791
-0.283706
-0.18493
-0.0794751
0.0328106
0.151863
0.267701
0.366985
0.448894
0.518735
0.577466
0.625395
0.664037
0.673039
0.692515
0.743363
-0.620381
-0.602219
-0.546383
-0.473809
-0.389087
-0.297708
-0.198662
-0.0929601
0.0195296
0.138988
0.255545
0.355593
0.439242
0.512479
0.574659
0.624378
0.655777
0.65815
0.629928
0.638188
-0.634956
-0.616897
-0.560788
-0.488004
-0.403121
-0.311626
-0.212518
-0.106859
0.00551612
0.124893
0.241308
0.340868
0.423797
0.496356
0.556987
0.601898
0.60591
0.565843
0.509531
0.500396
-0.648755
-0.630941
-0.574624
-0.501785
-0.416886
-0.325468
-0.226505
-0.121134
-0.0092503
0.109446
0.225071
0.323423
0.403135
0.469449
0.522749
0.540949
0.512259
0.443436
0.372716
0.359839
-0.661809
-0.644343
-0.58791
-0.515171
-0.430392
-0.339237
-0.240626
-0.135799
-0.0247428
0.0928353
0.206911
0.302601
0.376371
0.429548
0.458601
0.45041
0.402758
0.303663
0.217692
0.200502
-0.674575
-0.657522
-0.601043
-0.528529
-0.443987
-0.353232
-0.255127
-0.151031
-0.0410672
0.0747421
0.186384
0.277911
0.34535
0.382445
0.377039
0.343167
0.239145
0.117999
0.0113348
-0.0119104
-0.687937
-0.671241
-0.614716
-0.542483
-0.458234
-0.367906
-0.27038
-0.167149
-0.0585313
0.055125
0.163746
0.250308
0.309121
0.323926
0.286358
0.200954
0.0437019
-0.109189
-0.236944
-0.261968
-0.7024
-0.685944
-0.629242
-0.557261
-0.47331
-0.383373
-0.286454
-0.184184
-0.0770525
0.0340833
0.13841
0.219499
0.266408
0.255048
0.19496
0.043996
-0.161952
-0.379377
-0.562079
-0.608216
-0.718035
-0.701671
-0.644672
-0.572883
-0.489182
-0.39959
-0.30329
-0.202059
-0.0966116
0.0115083
0.110698
0.186528
0.218888
0.174508
0.0797702
-0.117163
-0.360397
-0.661655
-0.993501
-1.13621
-0.734893
-0.718557
-0.661095
-0.589412
-0.505893
-0.416619
-0.320959
-0.220865
-0.117262
-0.0122901
0.0812681
0.150706
0.166612
0.0891805
-0.0569315
-0.278632
-0.530246
-0.894731
-1.50492
-2.08897
-0.752983
-0.736596
-0.678568
-0.606906
-0.523458
-0.434449
-0.339411
-0.240478
-0.13875
-0.0369736
0.0506668
0.112283
0.111588
0.0104338
-0.192343
-0.448371
-0.671874
-0.933821
-1.53302
-3.13308
-0.772354
-0.755897
-0.697156
-0.62546
-0.542012
-0.453266
-0.358881
-0.261165
-0.161473
-0.0630724
0.0186998
0.0704804
0.0514238
-0.0524823
-0.293601
-0.561751
-0.729737
-0.789027
-0.811544
-1.2182
-0.792923
-0.776462
-0.717024
-0.645374
-0.561928
-0.473519
-0.379923
-0.283636
-0.18627
-0.0917547
-0.0151612
0.0269512
-0.0113755
-0.102534
-0.348729
-0.584115
-0.715059
-0.736681
-0.69408
-0.740316
-0.814667
-0.798179
-0.738151
-0.666661
-0.583222
-0.495277
-0.402644
-0.307945
-0.213193
-0.123177
-0.0514975
-0.0184724
-0.0679847
-0.155432
-0.385622
-0.576686
-0.674745
-0.684782
-0.730306
-0.743512
-0.837437
-0.820763
-0.760495
-0.689339
-0.605859
-0.518511
-0.426984
-0.334115
-0.242313
-0.157027
-0.0903047
-0.0664358
-0.118426
-0.215389
-0.421619
-0.572596
-0.655961
-0.617489
-0.645486
-0.649002
-0.861033
-0.84396
-0.783981
-0.713241
-0.629619
-0.543064
-0.452803
-0.361905
-0.273284
-0.192561
-0.130536
-0.116538
-0.165163
-0.285576
-0.46161
-0.576412
-0.635472
-0.664327
-0.649321
-0.656562
-0.884855
-0.867486
-0.808545
-0.738146
-0.654287
-0.56873
-0.4798
-0.390961
-0.305831
-0.22978
-0.171911
-0.170147
-0.207808
-0.351943
-0.508093
-0.59533
-0.597308
-0.656996
-0.629175
-0.637997
-0.908528
-0.89117
-0.83369
-0.763453
-0.679503
-0.595161
-0.507591
-0.420868
-0.339625
-0.268108
-0.212998
-0.222478
-0.260161
-0.409979
-0.546434
-0.631995
-0.602527
-0.636151
-0.626796
-0.628402
-0.931491
-0.914543
-0.858481
-0.78851
-0.704951
-0.621915
-0.535683
-0.450949
-0.373674
-0.306891
-0.252221
-0.273189
-0.321528
-0.453076
-0.555602
-0.632064
-0.647795
-0.629149
-0.633572
-0.62754
-0.953156
-0.936928
-0.882078
-0.812598
-0.730212
-0.648357
-0.563323
-0.480562
-0.406828
-0.345656
-0.29016
-0.321219
-0.389939
-0.505715
-0.547887
-0.583685
-0.658826
-0.611924
-0.63013
-0.622962
-0.972501
-0.957321
-0.903801
-0.835019
-0.754583
-0.673546
-0.589745
-0.5088
-0.437892
-0.382939
-0.325514
-0.363249
-0.463778
-0.576698
-0.565078
-0.440752
-0.558719
-0.561648
-0.596625
-0.605412
-0.988516
-0.974708
-0.922953
-0.855218
-0.776939
-0.696531
-0.614017
-0.534677
-0.465262
-0.417163
-0.360723
-0.394818
-0.538319
-0.663554
-0.640353
-0.539616
-0.582992
-0.608906
-0.635742
-0.640516
-1.0001
-0.988029
-0.938763
-0.872322
-0.795709
-0.71606
-0.634837
-0.557136
-0.488236
-0.444717
-0.395159
-0.414991
-0.615142
-0.850223
-1.01825
-1.07385
-1.06969
-1.03895
-1.00309
-0.976006
-1.00625
-0.996091
-0.949839
-0.885015
-0.809742
-0.731277
-0.651319
-0.574338
-0.505686
-0.462517
-0.422779
-0.424576
-0.676064
-1.07298
-1.59703
-1.92472
-1.96019
-1.90464
-1.77028
-1.67455
-1.00609
-0.997812
-0.955232
-0.892201
-0.818095
-0.74076
-0.661699
-0.584902
-0.514384
-0.466829
-0.435411
-0.42441
-0.661029
-1.05332
-1.58208
-1.88993
-1.89182
-1.7857
-1.66071
-1.60331
-0.998447
-0.991349
-0.95297
-0.892296
-0.819825
-0.743375
-0.664808
-0.587502
-0.51284
-0.454831
-0.420936
-0.387638
-0.498714
-0.576348
-0.669664
-0.688736
-0.611655
-0.517469
-0.41359
-0.322378
-0.981266
-0.974305
-0.94181
-0.884747
-0.814366
-0.738775
-0.659966
-0.580666
-0.499739
-0.425674
-0.370276
-0.267457
-0.177136
0.0716379
0.34038
0.568332
0.760642
0.888682
0.956876
0.98326
-0.949906
-0.943314
-0.919792
-0.868839
-0.801223
-0.726556
-0.647064
-0.565126
-0.477537
-0.383463
-0.3001
-0.149931
0.0980416
0.500801
0.930036
1.28406
1.5352
1.68208
1.74584
1.76621
-0.903707
-0.899051
-0.888629
-0.845576
-0.781622
-0.708104
-0.628432
-0.544055
-0.453093
-0.342978
-0.235239
-0.107055
0.197042
0.594561
1.00671
1.35659
1.61831
1.7764
1.846
1.86445
-0.861565
-0.860562
-0.856006
-0.818267
-0.758001
-0.686146
-0.60726
-0.52177
-0.431388
-0.320665
-0.207192
-0.122115
0.123838
0.447858
0.773418
1.05362
1.27653
1.4168
1.48442
1.50698
-0.828143
-0.830529
-0.823024
-0.789921
-0.731933
-0.662726
-0.58652
-0.503745
-0.41896
-0.326136
-0.220376
-0.156249
0.00933888
0.256617
0.512281
0.720158
0.88344
0.996259
1.05139
1.06983
-0.778924
-0.782097
-0.777348
-0.752105
-0.699303
-0.635701
-0.565997
-0.491096
-0.415145
-0.338682
-0.243946
-0.185748
-0.0857995
0.101894
0.309874
0.465984
0.584801
0.671995
0.711811
0.720188
-0.709475
-0.711982
-0.71017
-0.693536
-0.652178
-0.600688
-0.542597
-0.479088
-0.412534
-0.347363
-0.266261
-0.210947
-0.15674
-0.0180831
0.13961
0.24974
0.333744
0.395021
0.422609
0.431118
-0.625444
-0.627205
-0.626635
-0.616047
-0.589254
-0.554091
-0.51081
-0.461571
-0.404611
-0.350402
-0.282794
-0.233929
-0.20314
-0.100234
0.0122879
0.0866252
0.1458
0.191501
0.20818
0.21239
-0.540297
-0.541487
-0.541174
-0.535419
-0.521172
-0.500592
-0.471338
-0.438157
-0.391653
-0.349737
-0.296094
-0.257311
-0.23822
-0.161877
-0.0795872
-0.0280042
0.014931
0.0463003
0.0638404
0.0700934
-0.467564
-0.468633
-0.469122
-0.467177
-0.461185
-0.450589
-0.433575
-0.413653
-0.378293
-0.345899
-0.303914
-0.275594
-0.261269
-0.209567
-0.14752
-0.109049
-0.0766899
-0.0560261
-0.0454516
-0.0411018
-0.418051
-0.418499
-0.419206
-0.419547
-0.418118
-0.413789
-0.404498
-0.39252
-0.368296
-0.340024
-0.303064
-0.281872
-0.265808
-0.232888
-0.192858
-0.164478
-0.143332
-0.131699
-0.127702
-0.127175
-0.389797
-0.389964
-0.390605
-0.391767
-0.392547
-0.391361
-0.386185
-0.377842
-0.360776
-0.333304
-0.296301
-0.273527
-0.259281
-0.239354
-0.215218
-0.199773
-0.189536
-0.183798
-0.182426
-0.184806
-0.379651
-0.379515
-0.37976
-0.38068
-0.381691
-0.381
-0.377298
-0.36896
-0.354277
-0.330442
-0.294655
-0.261391
-0.249157
-0.237216
-0.224547
-0.221587
-0.219283
-0.222614
-0.224979
-0.227008
-0.384842
-0.384462
-0.384296
-0.384696
-0.385229
-0.383221
-0.380047
-0.372036
-0.35661
-0.336551
-0.296391
-0.26261
-0.24288
-0.246797
-0.241458
-0.244741
-0.245192
-0.252134
-0.256916
-0.257297
-0.403859
-0.402804
-0.402298
-0.40215
-0.401896
-0.40013
-0.397523
-0.390692
-0.379939
-0.359947
-0.318606
-0.284491
-0.261418
-0.275249
-0.261462
-0.257574
-0.253939
-0.245658
-0.246586
-0.247589
-0.434309
-0.433609
-0.432885
-0.432195
-0.431838
-0.430851
-0.430471
-0.42773
-0.425783
-0.41129
-0.377724
-0.333505
-0.320521
-0.321197
-0.292851
-0.264174
-0.238862
-0.215343
-0.204966
-0.215441
-0.472383
-0.471994
-0.471939
-0.472013
-0.472709
-0.474525
-0.47949
-0.486856
-0.499545
-0.501901
-0.474898
-0.407631
-0.385645
-0.367294
-0.330624
-0.294047
-0.260103
-0.238153
-0.222793
-0.232523
-0.514939
-0.514833
-0.515367
-0.516911
-0.520397
-0.527736
-0.542445
-0.567382
-0.601906
-0.638213
-0.618772
-0.518868
-0.458938
-0.421135
-0.381225
-0.345828
-0.308591
-0.300056
-0.290933
-0.291408
-0.55456
-0.555066
-0.556736
-0.560236
-0.567687
-0.582874
-0.612034
-0.662011
-0.733418
-0.820373
-0.815007
-0.683177
-0.58842
-0.520366
-0.458545
-0.404834
-0.354015
-0.340095
-0.350287
-0.348857
-0.57967
-0.581084
-0.584367
-0.590247
-0.60211
-0.625585
-0.671706
-0.750985
-0.878311
-1.01161
-1.03434
-0.879423
-0.757838
-0.651556
-0.550857
-0.479036
-0.452203
-0.427309
-0.432236
-0.432575
-0.57806
-0.579777
-0.583496
-0.592951
-0.610172
-0.635478
-0.695146
-0.79678
-0.955973
-1.12161
-1.24566
-1.03098
-0.879721
-0.734445
-0.629572
-0.559267
-0.536647
-0.537606
-0.531097
-0.529615
-0.542767
-0.545141
-0.548436
-0.555951
-0.573366
-0.606173
-0.667412
-0.77366
-0.943894
-1.14889
-1.23241
-1.06115
-0.881542
-0.74252
-0.655497
-0.618896
-0.583836
-0.59148
-0.586534
-0.585101
-0.475129
-0.477185
-0.480642
-0.487075
-0.501584
-0.531254
-0.586104
-0.682663
-0.834948
-1.01301
-1.07294
-0.923536
-0.759115
-0.689668
-0.64529
-0.608199
-0.611304
-0.604762
-0.60007
-0.597577
-0.384009
-0.385375
-0.387859
-0.392757
-0.403154
-0.425035
-0.466403
-0.539855
-0.653778
-0.780313
-0.818366
-0.700683
-0.603237
-0.589281
-0.583827
-0.566247
-0.572144
-0.567398
-0.563118
-0.559818
-0.283916
-0.284631
-0.285777
-0.288127
-0.293976
-0.307161
-0.332891
-0.379406
-0.451086
-0.531631
-0.548682
-0.463096
-0.45408
-0.468015
-0.478376
-0.502024
-0.491843
-0.488487
-0.485691
-0.484132
-0.190353
-0.190509
-0.19066
-0.190928
-0.192806
-0.198387
-0.210133
-0.232375
-0.266122
-0.311111
-0.303135
-0.276847
-0.322002
-0.344696
-0.371437
-0.392941
-0.38621
-0.385524
-0.385495
-0.384285
-0.112973
-0.11267
-0.112261
-0.11135
-0.110826
-0.111514
-0.113823
-0.119256
-0.124505
-0.127837
-0.131628
-0.161709
-0.194299
-0.234711
-0.265505
-0.276359
-0.276305
-0.277986
-0.277774
-0.27744
-0.0576078
-0.0571462
-0.0566615
-0.0555
-0.0541673
-0.0527178
-0.0505506
-0.0476676
-0.0406583
-0.0213809
-0.035935
-0.0842936
-0.113372
-0.146613
-0.168066
-0.172753
-0.176627
-0.178075
-0.178364
-0.178596
-0.0221872
-0.0217172
-0.0214013
-0.0207067
-0.0197071
-0.0184547
-0.0160735
-0.0125276
-0.00618588
0.00831693
0.00214807
-0.0333668
-0.0561517
-0.0728444
-0.0903552
-0.0955019
-0.0949143
-0.0950194
-0.0952136
-0.0955501
-0.00401173
-0.00375582
-0.00371298
-0.00375121
-0.00345053
-0.00304432
-0.00188549
6.40369e-06
0.00285397
0.00844393
0.00479236
-0.00902411
-0.0171084
-0.0233004
-0.0262903
-0.0272745
-0.0276883
-0.0278568
-0.0280704
-0.0283032
-1.48902
-0.610224
-0.337084
-0.0494247
0.144496
0.312306
0.45301
0.595879
0.748455
0.825383
-0.475242
-0.0498998
-0.0231931
0.1724
0.307574
0.428325
0.533298
0.625684
0.656505
0.612273
-0.0726423
0.151751
0.194996
0.335528
0.42915
0.515152
0.586123
0.638988
0.643254
0.655536
0.170365
0.323129
0.359668
0.468759
0.52782
0.590134
0.637654
0.671353
0.681385
0.704435
0.360621
0.465301
0.495487
0.569637
0.614129
0.658416
0.692118
0.717127
0.727613
0.758634
0.507094
0.580018
0.610552
0.656871
0.69396
0.725599
0.750946
0.771997
0.786718
0.814609
0.629965
0.682628
0.708911
0.738485
0.767361
0.791961
0.812567
0.832101
0.847311
0.873568
0.735849
0.774417
0.795994
0.817418
0.839104
0.859094
0.876823
0.895177
0.910148
0.933744
0.831596
0.860754
0.878108
0.893914
0.910601
0.927029
0.942774
0.95988
0.973479
0.995784
0.920776
0.941725
0.956966
0.970445
0.984307
0.998298
1.01187
1.02652
1.03805
1.05772
1.00723
1.02314
1.03715
1.04916
1.06124
1.07293
1.08408
1.09578
1.10344
1.12026
1.09284
1.10581
1.11963
1.13132
1.1419
1.15165
1.16042
1.16867
1.17224
1.18353
1.18225
1.19324
1.20672
1.21593
1.22336
1.23055
1.23774
1.24432
1.24532
1.25275
1.2807
1.28544
1.29348
1.29797
1.30124
1.30571
1.31171
1.31948
1.3233
1.33319
1.39402
1.38031
1.37287
1.36723
1.36456
1.36597
1.37247
1.38489
1.39964
1.42929
1.5149
1.45919
1.42833
1.41126
1.40312
1.40312
1.41179
1.43128
1.46331
1.53248
)
;

boundaryField
{
    wall-4
    {
        type            zeroGradient;
    }
    pressure-outlet-7
    {
        type            fixedValue;
        value           uniform 0;
    }
    velocity-inlet-6
    {
        type            zeroGradient;
    }
    velocity-inlet-5
    {
        type            zeroGradient;
    }
    frontAndBackPlanes
    {
        type            empty;
    }
}


// ************************************************************************* //
