/*--------------------------------*- C++ -*----------------------------------*\
| =========                 |                                                 |
| \\      /  F ield         | OpenFOAM: The Open Source CFD Toolbox           |
|  \\    /   O peration     | Version:  v2012                                 |
|   \\  /    A nd           | Website:  www.openfoam.com                      |
|    \\/     M anipulation  |                                                 |
\*---------------------------------------------------------------------------*/
FoamFile
{
    version     2.0;
    format      ascii;
    class       volVectorField;
    location    "26";
    object      U;
}
// * * * * * * * * * * * * * * * * * * * * * * * * * * * * * * * * * * * * * //

dimensions      [0 1 -1 0 0 0 0];


internalField   nonuniform List<vector> 
2200
(
(0.878848 -0.0304119 0)
(1.00578 -0.0512863 0)
(1.00321 -0.0353973 0)
(1.00016 -0.0244384 0)
(0.999768 -0.0166897 0)
(0.999956 -0.0107705 0)
(1.00001 -0.00686481 0)
(1.00004 -0.00422104 0)
(1.00003 -0.00226085 0)
(1.00016 -0.000686598 0)
(1.00006 0.000930498 0)
(1.00002 0.00252198 0)
(1.00006 0.0044596 0)
(1.00001 0.0070972 0)
(0.999994 0.0109401 0)
(0.999756 0.016777 0)
(1.00015 0.0245171 0)
(1.00333 0.0353365 0)
(1.00583 0.0513258 0)
(0.878901 0.030413 0)
(0.711998 -0.0327611 0)
(0.996642 -0.0630018 0)
(1.03341 -0.056147 0)
(1.02497 -0.0463596 0)
(1.01592 -0.0359663 0)
(1.00975 -0.0261655 0)
(1.00597 -0.0179463 0)
(1.00368 -0.0113603 0)
(1.00242 -0.00613359 0)
(1.00197 -0.0017662 0)
(1.00192 0.00250616 0)
(1.00241 0.00684871 0)
(1.00358 0.0119937 0)
(1.00589 0.0184386 0)
(1.00955 0.0266117 0)
(1.01578 0.0364463 0)
(1.02487 0.0467684 0)
(1.03314 0.0568125 0)
(0.996526 0.06315 0)
(0.711726 0.0328609 0)
(0.535568 -0.0238846 0)
(0.969922 -0.0569324 0)
(1.05642 -0.0547216 0)
(1.05236 -0.048859 0)
(1.03642 -0.0405233 0)
(1.02439 -0.032327 0)
(1.01571 -0.024198 0)
(1.01031 -0.0163184 0)
(1.00735 -0.00900547 0)
(1.00599 -0.00248183 0)
(1.00599 0.00374894 0)
(1.00722 0.0101741 0)
(1.01014 0.0173074 0)
(1.01536 0.0250843 0)
(1.02415 0.0330541 0)
(1.03624 0.0410988 0)
(1.05211 0.0493812 0)
(1.05628 0.054222 0)
(0.96932 0.0573783 0)
(0.534736 0.0238952 0)
(0.392362 -0.0136318 0)
(0.911702 -0.0463185 0)
(1.05744 -0.0469208 0)
(1.06944 -0.0442857 0)
(1.05494 -0.0383556 0)
(1.03942 -0.0318703 0)
(1.02748 -0.0249628 0)
(1.01888 -0.0177226 0)
(1.01341 -0.0102651 0)
(1.01086 -0.00274821 0)
(1.01072 0.00467418 0)
(1.01309 0.012032 0)
(1.01845 0.0192567 0)
(1.02714 0.0262781 0)
(1.03892 0.0330192 0)
(1.05431 0.0392759 0)
(1.06865 0.0451057 0)
(1.05618 0.047816 0)
(0.910436 0.0466188 0)
(0.390824 0.0137316 0)
(0.308104 -0.00444784 0)
(0.847093 -0.0322316 0)
(1.0493 -0.0396351 0)
(1.079 -0.0378563 0)
(1.06769 -0.0332812 0)
(1.05155 -0.0278573 0)
(1.03841 -0.0225467 0)
(1.0282 -0.0165718 0)
(1.02104 -0.00980672 0)
(1.0172 -0.0024637 0)
(1.01702 0.0049475 0)
(1.02055 0.0122085 0)
(1.02756 0.0188142 0)
(1.03749 0.0245864 0)
(1.05047 0.0294738 0)
(1.06656 0.0346911 0)
(1.07766 0.0389692 0)
(1.0477 0.0407235 0)
(0.844549 0.0325947 0)
(0.305584 0.00458142 0)
(0.264931 0.000122195 0)
(0.789507 -0.0199563 0)
(1.03354 -0.031347 0)
(1.08334 -0.0318481 0)
(1.07677 -0.028394 0)
(1.06028 -0.0234548 0)
(1.04708 -0.0192783 0)
(1.03646 -0.0143832 0)
(1.02871 -0.00857149 0)
(1.02429 -0.00182209 0)
(1.0241 0.00520152 0)
(1.02815 0.0117171 0)
(1.03549 0.017144 0)
(1.04573 0.0215428 0)
(1.05884 0.0255606 0)
(1.07524 0.0301461 0)
(1.08148 0.0332124 0)
(1.03089 0.0324821 0)
(0.785401 0.0204029 0)
(0.261468 1.22441e-07 0)
(0.241143 0.00104351 0)
(0.738992 -0.0121315 0)
(1.01385 -0.0247695 0)
(1.0841 -0.0266055 0)
(1.08279 -0.0242072 0)
(1.06734 -0.0200193 0)
(1.05376 -0.0160363 0)
(1.043 -0.0118069 0)
(1.03487 -0.00696344 0)
(1.03001 -0.00116027 0)
(1.02961 0.00529051 0)
(1.03373 0.0107716 0)
(1.04134 0.0152113 0)
(1.05208 0.0191373 0)
(1.06538 0.0226263 0)
(1.08044 0.0263535 0)
(1.08124 0.0283644 0)
(1.0097 0.0260382 0)
(0.732983 0.0126649 0)
(0.2366 -0.000915348 0)
(0.227327 0.00102176 0)
(0.697589 -0.00765431 0)
(0.993597 -0.0197835 0)
(1.08223 -0.0221882 0)
(1.08667 -0.0205605 0)
(1.07282 -0.0172134 0)
(1.05917 -0.013622 0)
(1.0484 -0.0096484 0)
(1.04042 -0.00519016 0)
(1.03559 -4.35484e-05 0)
(1.0351 0.00560761 0)
(1.03909 0.0104034 0)
(1.04648 0.0142811 0)
(1.05642 0.0176158 0)
(1.06984 0.0205266 0)
(1.08339 0.0233914 0)
(1.07823 0.0244652 0)
(0.987563 0.0213805 0)
(0.68927 0.00832885 0)
(0.221526 -0.000878504 0)
(0.218567 0.000763063 0)
(0.663879 -0.00515432 0)
(0.973782 -0.0164849 0)
(1.07867 -0.0190204 0)
(1.08894 -0.017812 0)
(1.07682 -0.0150548 0)
(1.06333 -0.0118483 0)
(1.05287 -0.00808791 0)
(1.04529 -0.00384614 0)
(1.04076 0.000907316 0)
(1.0401 0.00574787 0)
(1.04343 0.0100342 0)
(1.05008 0.0136935 0)
(1.05996 0.0165752 0)
(1.07318 0.0194498 0)
(1.08443 0.0215159 0)
(1.07281 0.0219186 0)
(0.965068 0.0184816 0)
(0.65246 0.00602518 0)
(0.211104 -0.000566398 0)
(0.212434 0.00035609 0)
(0.636796 -0.00352304 0)
(0.955574 -0.0136303 0)
(1.07526 -0.0163007 0)
(1.09111 -0.0153941 0)
(1.08027 -0.013117 0)
(1.06655 -0.0101722 0)
(1.05608 -0.00657092 0)
(1.04854 -0.00242994 0)
(1.04402 0.0020909 0)
(1.04304 0.00631101 0)
(1.0459 0.0103245 0)
(1.05213 0.0135227 0)
(1.06205 0.0164176 0)
(1.07508 0.0181458 0)
(1.08496 0.0194568 0)
(1.0675 0.0196663 0)
(0.944331 0.0159747 0)
(0.622295 0.00450205 0)
(0.203136 -0.000134503 0)
(0.208386 0.00012229 0)
(0.617635 -0.00186435 0)
(0.940661 -0.0100071 0)
(1.07261 -0.0124981 0)
(1.09352 -0.0117135 0)
(1.08375 -0.00993665 0)
(1.06983 -0.00763841 0)
(1.05888 -0.00464102 0)
(1.05084 -0.00105271 0)
(1.04583 0.00317635 0)
(1.0446 0.00719173 0)
(1.04751 0.0107498 0)
(1.05401 0.0134129 0)
(1.06354 0.0152769 0)
(1.07678 0.0164356 0)
(1.08558 0.0173882 0)
(1.06208 0.0170968 0)
(0.924756 0.0129954 0)
(0.598289 0.00317305 0)
(0.196465 0.000176493 0)
(0.20615 -1.54138e-05 0)
(0.605099 -0.000585372 0)
(0.927527 -0.00630094 0)
(1.06998 -0.00860295 0)
(1.09604 -0.00797405 0)
(1.0873 -0.00619686 0)
(1.07362 -0.00397853 0)
(1.06251 -0.00141732 0)
(1.0539 0.00144081 0)
(1.04823 0.00483828 0)
(1.04671 0.00818857 0)
(1.04969 0.0106498 0)
(1.05639 0.0122022 0)
(1.0663 0.0130754 0)
(1.07902 0.0142614 0)
(1.08574 0.014631 0)
(1.0564 0.0137438 0)
(0.907934 0.00966127 0)
(0.581652 0.00209484 0)
(0.191402 0.000297969 0)
(0.205791 -0.000130946 0)
(0.598965 0.000333081 0)
(0.918915 -0.00287408 0)
(1.0681 -0.00498428 0)
(1.09843 -0.00444993 0)
(1.09092 -0.00278458 0)
(1.07773 -0.000795094 0)
(1.0669 0.00144859 0)
(1.05839 0.00401373 0)
(1.05253 0.00668362 0)
(1.05049 0.00932347 0)
(1.05267 0.0109008 0)
(1.05843 0.0118769 0)
(1.06751 0.0126537 0)
(1.07961 0.0126282 0)
(1.0849 0.0126494 0)
(1.0499 0.0114357 0)
(0.892857 0.00726473 0)
(0.569355 0.00156275 0)
(0.187228 0.000319704 0)
(0.206623 -1.41162e-05 0)
(0.598028 0.00103904 0)
(0.912713 -0.000555644 0)
(1.06633 -0.00222262 0)
(1.10042 -0.00170759 0)
(1.09383 -9.3506e-05 0)
(1.08072 0.00186797 0)
(1.06985 0.00414008 0)
(1.06139 0.00668539 0)
(1.05545 0.00910154 0)
(1.05282 0.0113944 0)
(1.05408 0.0124834 0)
(1.059 0.0129473 0)
(1.06735 0.0129472 0)
(1.07892 0.0121919 0)
(1.08268 0.0115641 0)
(1.04276 0.00990728 0)
(0.880126 0.00582626 0)
(0.560416 0.00147921 0)
(0.18383 0.000340921 0)
(0.209102 0.000355715 0)
(0.599101 0.00143033 0)
(0.909921 0.00151423 0)
(1.06544 0.000745494 0)
(1.10181 0.00152749 0)
(1.09578 0.00285899 0)
(1.0825 0.00452205 0)
(1.07125 0.00661012 0)
(1.0624 0.00905509 0)
(1.05605 0.011436 0)
(1.05289 0.0134592 0)
(1.05371 0.014185 0)
(1.05843 0.0140898 0)
(1.06651 0.0135302 0)
(1.07753 0.0123782 0)
(1.07999 0.0113928 0)
(1.03613 0.00930401 0)
(0.869268 0.00519349 0)
(0.552433 0.00156265 0)
(0.180344 0.000360296 0)
(0.212445 0.000455685 0)
(0.602435 0.00204289 0)
(0.910621 0.00338611 0)
(1.06564 0.00320598 0)
(1.10376 0.00423681 0)
(1.09811 0.00578246 0)
(1.08479 0.00754626 0)
(1.07319 0.00980931 0)
(1.06379 0.012252 0)
(1.05665 0.0147138 0)
(1.05258 0.0164698 0)
(1.05252 0.0168785 0)
(1.05675 0.0162252 0)
(1.06452 0.0149191 0)
(1.07468 0.0133666 0)
(1.07543 0.011517 0)
(1.02801 0.00865829 0)
(0.858552 0.00474728 0)
(0.545092 0.00164818 0)
(0.176935 0.00036383 0)
(0.218147 0.000562799 0)
(0.610748 0.00277285 0)
(0.914212 0.00491903 0)
(1.06761 0.0057695 0)
(1.1062 0.00685248 0)
(1.10121 0.00837233 0)
(1.0882 0.0103896 0)
(1.07671 0.0130055 0)
(1.06697 0.015738 0)
(1.05897 0.0184816 0)
(1.05371 0.0200588 0)
(1.05233 0.0201902 0)
(1.05543 0.0190463 0)
(1.0623 0.0171927 0)
(1.0715 0.0150259 0)
(1.07079 0.0127028 0)
(1.02066 0.00946959 0)
(0.849352 0.00535981 0)
(0.537625 0.00204548 0)
(0.173051 0.000418937 0)
(0.223391 0.000635869 0)
(0.617855 0.00309095 0)
(0.918675 0.00601519 0)
(1.0701 0.00729878 0)
(1.10927 0.00871363 0)
(1.10488 0.0107084 0)
(1.09217 0.0132799 0)
(1.08072 0.0165615 0)
(1.07063 0.020054 0)
(1.06185 0.0234198 0)
(1.05522 0.0250931 0)
(1.0524 0.0251325 0)
(1.05388 0.0237083 0)
(1.05947 0.0214982 0)
(1.06706 0.0186308 0)
(1.06414 0.0150258 0)
(1.01041 0.0107305 0)
(0.837287 0.00622766 0)
(0.52814 0.00260114 0)
(0.16817 0.000521371 0)
(0.231706 0.000841997 0)
(0.631367 0.00407981 0)
(0.927769 0.00817018 0)
(1.07438 0.0104084 0)
(1.11254 0.0119275 0)
(1.10879 0.0139086 0)
(1.09642 0.0170232 0)
(1.08474 0.0210123 0)
(1.07388 0.0252614 0)
(1.06369 0.0292173 0)
(1.0553 0.0310982 0)
(1.05113 0.0309504 0)
(1.05118 0.029017 0)
(1.05549 0.0258858 0)
(1.06107 0.0223513 0)
(1.05624 0.0179155 0)
(1.00054 0.0130038 0)
(0.826737 0.00784957 0)
(0.517865 0.00332458 0)
(0.162211 0.000646424 0)
(0.240274 0.00112881 0)
(0.643856 0.00490747 0)
(0.937148 0.00992908 0)
(1.07962 0.0130996 0)
(1.11654 0.0155686 0)
(1.11344 0.0185449 0)
(1.10152 0.0225807 0)
(1.08951 0.0273696 0)
(1.0776 0.0324089 0)
(1.06577 0.0367678 0)
(1.05565 0.0385394 0)
(1.04966 0.0376999 0)
(1.04784 0.0350732 0)
(1.05032 0.0312769 0)
(1.05372 0.0268279 0)
(1.04578 0.0210938 0)
(0.98625 0.0149861 0)
(0.809982 0.00907985 0)
(0.503158 0.00397044 0)
(0.15443 0.000766544 0)
(0.253324 0.00144416 0)
(0.663727 0.00674827 0)
(0.951782 0.0133824 0)
(1.08757 0.0179272 0)
(1.12228 0.0211463 0)
(1.1198 0.0249409 0)
(1.10819 0.0297606 0)
(1.09557 0.0355469 0)
(1.08215 0.0412723 0)
(1.06796 0.0457149 0)
(1.05512 0.047161 0)
(1.04687 0.0455553 0)
(1.04333 0.0418508 0)
(1.04369 0.036673 0)
(1.04463 0.0308636 0)
(1.03409 0.0243151 0)
(0.972987 0.017589 0)
(0.796669 0.0110846 0)
(0.489024 0.00478768 0)
(0.145974 0.000872954 0)
(0.26867 0.00198631 0)
(0.687136 0.00820156 0)
(0.970279 0.0169964 0)
(1.09911 0.0232133 0)
(1.13078 0.0282758 0)
(1.12806 0.0335179 0)
(1.1161 0.0400046 0)
(1.10239 0.0467571 0)
(1.08708 0.0531019 0)
(1.07045 0.0574806 0)
(1.0552 0.0581062 0)
(1.04442 0.0548498 0)
(1.03805 0.0495895 0)
(1.03573 0.0433786 0)
(1.03393 0.0363559 0)
(1.02002 0.0287656 0)
(0.954479 0.0208197 0)
(0.773341 0.0130673 0)
(0.467104 0.00566642 0)
(0.134686 0.00103446 0)
(0.290263 0.00282902 0)
(0.718754 0.0120416 0)
(0.994725 0.022868 0)
(1.11428 0.0314012 0)
(1.14181 0.0377801 0)
(1.13845 0.0453889 0)
(1.12556 0.053052 0)
(1.10994 0.0608603 0)
(1.09192 0.067569 0)
(1.07184 0.0712807 0)
(1.0527 0.070439 0)
(1.03877 0.0656397 0)
(1.03055 0.058781 0)
(1.02595 0.0507454 0)
(1.0215 0.042234 0)
(1.00485 0.0334003 0)
(0.937091 0.0246079 0)
(0.755367 0.0159725 0)
(0.447581 0.00687632 0)
(0.123131 0.00112836 0)
(0.320596 0.00390688 0)
(0.761478 0.0149016 0)
(1.02667 0.0301546 0)
(1.13519 0.0412949 0)
(1.15783 0.050997 0)
(1.15178 0.0607793 0)
(1.1363 0.0703795 0)
(1.11763 0.0792153 0)
(1.09616 0.085769 0)
(1.07247 0.0884606 0)
(1.05027 0.0858612 0)
(1.03346 0.0787233 0)
(1.02165 0.0694785 0)
(1.01402 0.0598594 0)
(1.00699 0.0499583 0)
(0.986923 0.0401309 0)
(0.913218 0.0297946 0)
(0.722361 0.0190212 0)
(0.414594 0.00784772 0)
(0.107068 0.00127769 0)
(0.357218 0.00778519 0)
(0.814136 0.024629 0)
(1.06767 0.0426134 0)
(1.16211 0.0579003 0)
(1.17722 0.0690816 0)
(1.16746 0.0822901 0)
(1.14815 0.0932217 0)
(1.12553 0.102205 0)
(1.09971 0.108019 0)
(1.07132 0.108894 0)
(1.04421 0.103512 0)
(1.02346 0.0935453 0)
(1.01012 0.082392 0)
(1.00058 0.0706899 0)
(0.990686 0.0590613 0)
(0.966996 0.0473187 0)
(0.888614 0.0353546 0)
(0.695913 0.0228847 0)
(0.388425 0.0096111 0)
(0.0926806 0.0012026 0)
(0.440403 0.0114351 0)
(0.894867 0.0348549 0)
(1.12158 0.0623049 0)
(1.19502 0.0811859 0)
(1.20255 0.096373 1.13951e-34)
(1.18547 0.112078 -6.65477e-35)
(1.16068 0.122878 0)
(1.13282 0.131073 0)
(1.10183 0.13501 0)
(1.06871 0.132928 0)
(1.03806 0.124166 0)
(1.01461 0.111572 0)
(0.997014 0.0974793 0)
(0.984046 0.0838708 0)
(0.971695 0.0706958 0)
(0.943637 0.0578063 0)
(0.85655 0.043664 0)
(0.648696 0.0279352 0)
(0.337843 0.0100179 0)
(0.0700487 0.00093885 0)
(0.508496 0.0263997 -3.23816e-21)
(0.98725 0.0591115 1.87222e-21)
(1.17987 0.0947548 0)
(1.23086 0.117005 2.85776e-21)
(1.22867 0.135629 -2.31555e-21)
(1.20314 0.150887 7.02112e-35)
(1.17221 0.160543 0)
(1.13836 0.167104 5.64378e-21)
(1.10165 0.168582 -1.98872e-20)
(1.06282 0.16351 4.32727e-21)
(1.02645 0.15156 0)
(0.99773 0.134798 -1.36188e-20)
(0.978271 0.118469 -1.69379e-20)
(0.963251 0.102593 2.97617e-20)
(0.946173 0.0874444 -2.38771e-20)
(0.910157 0.0716197 0)
(0.809358 0.054054 -9.09275e-21)
(0.587464 0.034047 0)
(0.286963 0.0139907 -4.92394e-20)
(0.0521345 0.00159556 5.82346e-20)
(0.539281 0.054841 -3.82008e-22)
(1.04239 0.102146 -3.31522e-20)
(1.22462 0.14615 1.04454e-20)
(1.26345 0.165387 1.09984e-20)
(1.25229 0.184 -4.24411e-21)
(1.21876 0.197211 7.62239e-21)
(1.18143 0.205039 0)
(1.1413 0.209653 0)
(1.09858 0.208534 3.12519e-20)
(1.05371 0.200279 0)
(1.01172 0.184256 4.71446e-20)
(0.978939 0.165989 1.46114e-20)
(0.953165 0.147917 3.30035e-22)
(0.932077 0.130758 -3.32919e-20)
(0.911821 0.114554 0)
(0.872367 0.0986742 0)
(0.768791 0.0763726 -1.5273e-19)
(0.554463 0.0521058 3.82745e-19)
(0.273566 0.0225127 -2.27317e-19)
(0.0498867 0.00494025 -2.69257e-19)
(0.543087 0.0780576 6.74631e-20)
(1.07275 0.159701 -1.94407e-20)
(1.25786 0.207825 -4.6657e-21)
(1.2896 0.224685 -2.21088e-20)
(1.27075 0.240558 1.37909e-20)
(1.23066 0.249795 -1.51985e-20)
(1.18746 0.254264 8.93938e-21)
(1.14142 0.255771 0)
(1.09281 0.251362 -6.50391e-20)
(1.0418 0.240043 6.96447e-20)
(0.994706 0.222167 -1.28691e-19)
(0.957224 0.20173 6.24446e-20)
(0.929051 0.181662 -4.53335e-20)
(0.906477 0.163378 9.95809e-20)
(0.881817 0.146294 0)
(0.839521 0.12908 -3.88111e-20)
(0.73979 0.106462 0)
(0.541883 0.072608 2.18758e-19)
(0.277514 0.0376343 -5.19228e-19)
(0.0602971 0.00795829 3.25697e-19)
(0.532477 0.110296 -3.30215e-19)
(1.08763 0.217924 1.31436e-19)
(1.27772 0.274109 2.10439e-20)
(1.30717 0.289189 0)
(1.28314 0.301855 1.01905e-20)
(1.23813 0.306306 -9.99517e-21)
(1.18996 0.306734 -9.48867e-21)
(1.1387 0.304467 0)
(1.08477 0.296392 4.59653e-20)
(1.02852 0.281341 -4.80062e-20)
(0.975818 0.259693 1.13146e-19)
(0.932747 0.235446 0)
(0.89951 0.214685 -9.56736e-20)
(0.872339 0.196583 5.27844e-20)
(0.848514 0.180208 1.42445e-19)
(0.810113 0.163664 -1.25381e-19)
(0.718546 0.138505 2.06122e-19)
(0.53698 0.0996023 -4.57346e-19)
(0.291299 0.0546518 2.89926e-19)
(0.0725261 0.0139485 -3.63253e-19)
(0.517271 0.134487 2.07692e-19)
(1.0919 0.272988 -1.53162e-19)
(1.28786 0.341191 6.56039e-20)
(1.3163 0.354691 -8.76404e-20)
(1.28863 0.364363 5.68424e-20)
(1.24036 0.36434 -8.03514e-21)
(1.18835 0.360854 3.65035e-21)
(1.13275 0.354631 -3.42909e-20)
(1.07412 0.342626 -4.64225e-20)
(1.0131 0.323982 -1.03445e-19)
(0.956428 0.299192 -2.44198e-19)
(0.912335 0.274984 -8.13521e-20)
(0.879379 0.253793 2.59276e-21)
(0.85345 0.234957 -1.89656e-19)
(0.825172 0.216849 -6.34624e-21)
(0.78427 0.19705 1.84239e-19)
(0.698016 0.169437 -5.7147e-20)
(0.532143 0.12649 -3.32607e-20)
(0.301954 0.0729471 0)
(0.0815555 0.0202099 7.8007e-19)
(0.49819 0.155504 0)
(1.08318 0.322897 4.82914e-20)
(1.28958 0.404886 0)
(1.31909 0.41851 -1.22969e-20)
(1.28895 0.426203 -7.09463e-20)
(1.23825 0.422169 1.06623e-20)
(1.18324 0.415058 6.95674e-21)
(1.12437 0.404904 6.02082e-20)
(1.06238 0.388921 -2.75845e-20)
(0.997784 0.366257 4.60848e-20)
(0.937431 0.337669 1.3175e-19)
(0.888131 0.309617 1.79937e-19)
(0.849607 0.284758 -1.1211e-19)
(0.818711 0.263856 2.06053e-19)
(0.79606 0.246368 -1.65307e-19)
(0.763121 0.229853 0)
(0.686734 0.201597 -4.37443e-19)
(0.532417 0.154219 5.8814e-19)
(0.310114 0.0910471 4.43919e-20)
(0.0876205 0.026182 -8.2824e-19)
(0.483361 0.176309 -5.37515e-21)
(1.07455 0.372085 -1.29036e-19)
(1.2867 0.46632 -3.79698e-19)
(1.31696 0.480136 2.0603e-19)
(1.28471 0.486146 -4.03326e-20)
(1.23228 0.47864 1.92495e-20)
(1.17507 0.468249 2.11842e-21)
(1.11367 0.454453 -8.22558e-21)
(1.04853 0.434867 -9.93089e-20)
(0.979999 0.408546 5.22683e-22)
(0.916398 0.377258 -1.44054e-19)
(0.867139 0.34676 -1.92397e-19)
(0.832324 0.32196 1.26006e-19)
(0.806986 0.302391 -7.41782e-20)
(0.77824 0.284034 1.80144e-19)
(0.740239 0.261276 0)
(0.66589 0.231382 -2.71678e-19)
(0.522037 0.179786 4.01763e-19)
(0.311295 0.107133 7.67677e-19)
(0.0898824 0.0314206 -9.01073e-19)
(0.468262 0.19392 -6.35282e-19)
(1.06029 0.416639 3.20515e-19)
(1.27969 0.523939 2.45443e-19)
(1.31121 0.538763 -2.24014e-19)
(1.27728 0.543756 1.12457e-20)
(1.22359 0.533172 5.60093e-20)
(1.16467 0.51983 -7.78072e-21)
(1.10116 0.5027 -2.26724e-20)
(1.03348 0.4797 -6.07073e-20)
(0.962484 0.449645 1.04177e-19)
(0.896688 0.413928 1.37291e-19)
(0.845381 0.38018 3.02134e-19)
(0.805813 0.352669 0)
(0.772742 0.328376 5.64833e-21)
(0.750571 0.30772 -5.00658e-19)
(0.721146 0.291111 1.15249e-19)
(0.654839 0.259542 5.84735e-19)
(0.514857 0.203708 -1.71927e-19)
(0.304706 0.121732 3.63968e-19)
(0.0884228 0.0342536 -3.03966e-20)
(0.459113 0.212976 6.13249e-21)
(1.04879 0.460607 2.98686e-19)
(1.27057 0.579141 1.87719e-19)
(1.30267 0.594692 -4.04961e-19)
(1.26717 0.598472 2.50852e-19)
(1.21261 0.585181 -7.19187e-20)
(1.15237 0.569338 4.87801e-21)
(1.0872 0.5493 5.32225e-20)
(1.01748 0.523245 1.09317e-19)
(0.944272 0.490027 -1.3213e-19)
(0.876404 0.451267 0)
(0.823377 0.415318 -1.18712e-19)
(0.785572 0.384858 1.36292e-19)
(0.760933 0.361321 1.82305e-19)
(0.733359 0.341902 -1.04652e-19)
(0.698288 0.316881 -2.63632e-19)
(0.631834 0.284229 -7.99392e-20)
(0.49943 0.221699 -1.21938e-21)
(0.294542 0.131351 0)
(0.0842653 0.036668 0)
(0.450561 0.228493 -3.1775e-19)
(1.03541 0.500814 0)
(1.25937 0.630639 2.16491e-19)
(1.2921 0.647605 -1.00646e-19)
(1.25533 0.650397 -2.59707e-19)
(1.20018 0.634595 7.19612e-20)
(1.13892 0.616547 -7.18594e-22)
(1.07243 0.593939 -2.80616e-20)
(1.00101 0.56506 7.12075e-20)
(0.925694 0.528389 -5.29248e-20)
(0.855418 0.485716 7.73515e-20)
(0.800581 0.445632 3.71401e-19)
(0.761302 0.413394 1.35124e-20)
(0.726312 0.386118 -1.86463e-19)
(0.704973 0.362875 3.58892e-19)
(0.678955 0.342538 4.50637e-21)
(0.618483 0.305108 8.55255e-20)
(0.486184 0.23925 -4.13962e-19)
(0.283111 0.138526 4.2002e-19)
(0.0788698 0.0382839 -5.01376e-19)
(0.444196 0.247496 3.55665e-23)
(1.02382 0.540152 0)
(1.24751 0.679763 0)
(1.28023 0.697911 9.29849e-20)
(1.24238 0.699461 1.03112e-19)
(1.18676 0.681275 -5.72763e-20)
(1.12459 0.661323 2.66898e-20)
(1.05697 0.636496 0)
(0.983938 0.605298 -1.13868e-19)
(0.906069 0.566334 1.92939e-19)
(0.833053 0.52128 2.34049e-19)
(0.777185 0.477684 -1.39669e-19)
(0.736949 0.441629 -1.74548e-19)
(0.713465 0.414024 4.12415e-19)
(0.68656 0.389987 -1.27e-19)
(0.654107 0.36145 -1.53992e-19)
(0.592698 0.324268 -9.39841e-20)
(0.466145 0.250646 -4.48629e-19)
(0.269552 0.143556 6.35888e-20)
(0.0727614 0.0386901 5.44285e-19)
(0.440446 0.266193 -1.27644e-19)
(1.01217 0.576522 -2.01239e-19)
(1.23459 0.725354 2.3575e-20)
(1.26743 0.745202 2.08428e-23)
(1.22881 0.745832 3.08987e-20)
(1.17285 0.725487 -1.58745e-19)
(1.10989 0.703753 0)
(1.04127 0.676965 2.07966e-20)
(0.966865 0.643697 -1.63984e-20)
(0.887625 0.601944 3.07213e-19)
(0.81354 0.551829 -5.77927e-20)
(0.755012 0.505387 6.4588e-20)
(0.713133 0.467631 0)
(0.678301 0.433838 -2.24963e-19)
(0.658008 0.405937 2.79543e-19)
(0.634059 0.383488 0)
(0.576501 0.337579 -2.05193e-19)
(0.448075 0.261994 6.00644e-19)
(0.255041 0.146589 7.12703e-20)
(0.0662595 0.0381781 -6.73636e-19)
(0.43848 0.283167 -2.8442e-19)
(1.00231 0.611864 3.6513e-19)
(1.22188 0.768718 0)
(1.25434 0.789986 2.33036e-19)
(1.21499 0.789566 0)
(1.15872 0.767196 1.45536e-19)
(1.09503 0.743878 0)
(1.02549 0.715284 0)
(0.949514 0.680198 -3.87586e-20)
(0.8672 0.636319 -2.98347e-19)
(0.787757 0.585978 -4.35241e-19)
(0.727394 0.536495 8.09977e-20)
(0.687269 0.492048 3.01694e-19)
(0.663609 0.459251 2.52517e-19)
(0.638493 0.431236 -8.97008e-19)
(0.607167 0.396094 -3.69602e-19)
(0.547963 0.352868 2.15057e-19)
(0.424684 0.267639 0)
(0.239067 0.147628 6.16686e-19)
(0.059353 0.0367363 -7.3015e-19)
(0.437074 0.29893 3.14447e-19)
(0.992126 0.644204 -4.02053e-19)
(1.20881 0.80854 0)
(1.24101 0.831677 -1.03361e-20)
(1.20113 0.830704 -9.53687e-20)
(1.14461 0.806692 0)
(1.08027 0.781897 -8.73425e-21)
(1.00979 0.751707 2.43952e-20)
(0.932341 0.715269 -5.33391e-20)
(0.848671 0.670144 3.09684e-20)
(0.769803 0.616217 0)
(0.707876 0.56147 3.25228e-19)
(0.662557 0.517697 4.1988e-21)
(0.62631 0.476502 1.37071e-19)
(0.606796 0.441427 1.64961e-19)
(0.58524 0.413722 0)
(0.52957 0.359231 -3.61259e-19)
(0.404512 0.272914 7.08312e-19)
(0.222487 0.146604 -7.52842e-19)
(0.052665 0.0344691 1.58269e-18)
(0.435967 0.313919 0)
(0.983404 0.676011 0)
(1.19642 0.846568 -2.20732e-19)
(1.22783 0.871098 0)
(1.18735 0.869386 0)
(1.13068 0.843861 2.16116e-19)
(1.06581 0.817818 -1.21006e-20)
(0.994674 0.786289 1.71067e-20)
(0.916322 0.748392 -5.91306e-21)
(0.830898 0.701419 0)
(0.747091 0.644862 -6.95409e-20)
(0.680293 0.5904 -2.68997e-19)
(0.634282 0.539018 -3.36043e-19)
(0.610097 0.497956 -1.39102e-19)
(0.586007 0.462622 1.81226e-19)
(0.556522 0.419645 -4.30041e-19)
(0.499298 0.369807 7.8123e-19)
(0.378422 0.272878 5.88966e-21)
(0.205484 0.143484 -7.27463e-19)
(0.0461816 0.031784 -1.07821e-19)
(0.43475 0.32855 0)
(0.97426 0.705108 -3.14262e-19)
(1.1839 0.881296 2.46722e-19)
(1.21472 0.907517 0)
(1.17384 0.905493 0)
(1.11707 0.878891 -4.79843e-19)
(1.05186 0.851806 0)
(0.980068 0.818959 0)
(0.900145 0.780007 -9.7716e-20)
(0.811791 0.732263 5.6788e-20)
(0.725398 0.675805 -5.62689e-19)
(0.657692 0.616836 0)
(0.610693 0.563676 -3.65522e-19)
(0.570321 0.514043 1.14053e-20)
(0.550705 0.46766 -5.80106e-19)
(0.531635 0.432907 2.32868e-19)
(0.479636 0.366318 3.30583e-21)
(0.359829 0.271099 -8.31568e-19)
(0.19034 0.139127 3.94525e-19)
(0.0411187 0.0292121 1.15354e-19)
(0.433644 0.34272 0)
(0.966548 0.733967 -3.72382e-19)
(1.17214 0.914795 2.62834e-19)
(1.20194 0.942058 5.46962e-19)
(1.16057 0.939357 1.08219e-19)
(1.10382 0.91166 -7.3947e-20)
(1.03832 0.883726 4.43871e-20)
(0.96598 0.84994 -5.28575e-20)
(0.885341 0.810392 1.04528e-19)
(0.796628 0.761829 3.60019e-19)
(0.709302 0.70376 4.66795e-19)
(0.635492 0.64363 8.87057e-20)
(0.578044 0.585915 5.29994e-19)
(0.551194 0.533171 3.42245e-19)
(0.526946 0.487779 4.18618e-19)
(0.499557 0.428936 -2.60183e-19)
(0.447024 0.369441 -3.06761e-19)
(0.333645 0.262574 3.59956e-19)
(0.174425 0.13063 -2.12828e-19)
(0.038182 0.0294501 3.76181e-19)
(0.432426 0.356443 4.90646e-19)
(0.958344 0.760006 5.91261e-19)
(1.16034 0.945227 1.44718e-19)
(1.18944 0.973843 1.61928e-20)
(1.14778 0.970818 -3.78663e-19)
(1.09103 0.942383 1.39227e-19)
(1.02539 0.913801 -5.12677e-20)
(0.952867 0.879286 -2.15034e-20)
(0.871232 0.838684 -1.01536e-19)
(0.779827 0.789713 -4.00199e-19)
(0.686651 0.731022 2.85777e-20)
(0.608092 0.668442 0)
(0.556904 0.608411 0)
(0.507624 0.55073 -1.74531e-19)
(0.484363 0.48821 -6.89477e-19)
(0.467992 0.436475 5.64254e-19)
(0.426698 0.346546 3.43011e-19)
(0.329665 0.242067 0)
(0.180476 0.109364 6.79362e-19)
(0.0325399 0.00866797 -4.05857e-19)
(0.431387 0.369429 -2.6211e-19)
(0.95142 0.785861 2.27106e-19)
(1.1493 0.974775 -3.23216e-19)
(1.17737 1.00412 -3.45903e-19)
(1.13535 1.00037 -1.50712e-19)
(1.07876 0.971048 3.29561e-20)
(1.01311 0.941903 0)
(0.940184 0.906709 8.42896e-20)
(0.857841 0.866115 1.59183e-20)
(0.765173 0.817071 0)
(0.670993 0.759057 0)
(0.591695 0.696905 6.13383e-20)
(0.52188 0.634444 9.25017e-20)
(0.486245 0.570191 -1.88548e-19)
(0.455261 0.510348 4.98075e-19)
(0.425892 0.424398 -6.20921e-19)
(0.3829 0.335532 -7.35555e-19)
(0.313113 0.217534 6.50965e-19)
(0.212952 0.130591 -2.4449e-19)
(0.119698 0.089809 1.40534e-19)
(0.430061 0.38166 3.03477e-19)
(0.943875 0.808819 0)
(1.13826 1.00138 0)
(1.16571 1.03185 -1.16055e-19)
(1.12352 1.02775 9.39425e-20)
(1.06701 0.99783 -2.08275e-20)
(1.00124 0.968226 -1.93306e-19)
(0.928205 0.93264 -1.56201e-19)
(0.845083 0.891429 1.36723e-19)
(0.750531 0.841652 -3.20329e-20)
(0.652897 0.783132 7.51724e-20)
(0.565348 0.721034 -5.11264e-19)
(0.502103 0.659092 -5.55599e-19)
(0.439041 0.593592 -1.00758e-19)
(0.399881 0.510526 0)
(0.374891 0.435685 -1.20983e-20)
(0.343714 0.281798 4.06576e-19)
(0.299199 0.119159 -6.81541e-19)
(0.259036 -0.0345019 5.07426e-19)
(0.0801064 -0.0900381 4.07218e-19)
(0.428888 0.393265 -6.61773e-19)
(0.937423 0.83177 -2.86715e-19)
(1.12792 1.02746 6.541e-21)
(1.15441 1.05854 1.49522e-19)
(1.11194 1.05381 0)
(1.0556 1.0232 4.25881e-19)
(0.989913 0.99327 2.38306e-19)
(0.916664 0.957349 -4.20516e-20)
(0.832888 0.916359 -5.84119e-20)
(0.737362 0.868256 -3.03732e-20)
(0.637425 0.812367 2.82109e-20)
(0.548373 0.751975 4.51596e-19)
(0.465923 0.687711 5.42887e-19)
(0.415657 0.615463 9.73169e-20)
(0.367666 0.546032 5.33372e-19)
(0.307045 0.424452 0)
(0.206622 0.276653 0)
(0.0397138 0.270334 4.99943e-19)
(-0.0686532 0.62933 -3.33689e-20)
(0.00130513 1.50745 -6.39358e-19)
(0.427263 0.404289 3.60522e-19)
(0.930363 0.852093 8.58318e-19)
(1.11752 1.05099 -1.288e-18)
(1.14343 1.08321 7.72251e-19)
(1.10082 1.0784 -8.82533e-20)
(1.04454 1.04751 5.61336e-19)
(0.978668 1.01747 0)
(0.905166 0.981569 1.71815e-19)
(0.82085 0.940824 0)
(0.723979 0.891924 3.1407e-19)
(0.621272 0.834745 -4.25582e-20)
(0.525743 0.776532 4.77185e-20)
(0.450308 0.719243 6.05428e-19)
(0.363465 0.656332 -2.20146e-19)
(0.278742 0.561792 -2.78089e-19)
(0.209267 0.487184 0)
(0.106932 0.575771 0)
(0.0366181 1.26005 0)
(0.0779661 2.43179 -2.81336e-19)
(0.108315 2.89543 -1.74549e-19)
(0.425782 0.414837 0)
(0.924356 0.872525 0)
(1.10783 1.07424 4.61282e-19)
(1.13283 1.10713 -6.43262e-19)
(1.08996 1.10196 4.37282e-19)
(1.0338 1.07076 -5.13693e-19)
(0.968026 1.04076 -2.72854e-20)
(0.894515 1.00504 2.12444e-20)
(0.809794 0.965014 1.17182e-20)
(0.711446 0.918918 -3.57928e-19)
(0.605399 0.867794 6.67409e-20)
(0.5075 0.813682 4.28884e-19)
(0.411127 0.754357 -5.97419e-19)
(0.340808 0.682929 -6.95319e-19)
(0.273956 0.626731 2.41797e-19)
(0.206737 0.746279 0)
(0.142653 1.49867 3.47882e-19)
(0.140611 2.67193 3.86106e-19)
(0.146997 3.08063 -4.32085e-19)
(0.137611 3.21892 4.7301e-19)
(0.423862 0.424595 0)
(0.917741 0.890307 7.00188e-19)
(1.09811 1.09497 -1.1945e-19)
(1.12261 1.12906 8.12596e-19)
(1.07961 1.12407 -4.58995e-19)
(1.02358 1.09291 0)
(0.957677 1.06312 0)
(0.883959 1.0278 0)
(0.79877 0.988577 -3.68961e-20)
(0.699952 0.942666 6.81569e-21)
(0.594342 0.88882 0)
(0.491594 0.837464 -4.19706e-19)
(0.406801 0.791327 0)
(0.295537 0.739982 4.95032e-19)
(0.215234 0.817337 -3.24081e-19)
(0.170996 1.44463 -2.70626e-19)
(0.17647 2.66216 -6.61251e-19)
(0.195906 3.12583 -3.3293e-19)
(0.186044 3.2714 -3.93275e-19)
(0.170827 3.3124 3.31089e-19)
(0.422178 0.433787 -2.3683e-19)
(0.912148 0.90833 1.51846e-20)
(1.08913 1.11563 -1.28881e-19)
(1.11281 1.15043 -6.49625e-19)
(1.06957 1.14531 0)
(1.01365 1.11415 0)
(0.94789 1.08473 0)
(0.874303 1.04996 -1.18032e-20)
(0.789037 1.01198 3.76704e-20)
(0.688907 0.96888 0)
(0.577759 0.924227 0)
(0.473965 0.87873 0)
(0.364408 0.832305 0)
(0.307413 0.826005 3.30546e-19)
(0.285477 1.18216 8.5665e-19)
(0.272922 2.33908 2.65659e-19)
(0.283691 3.08089 4.92004e-19)
(0.276281 3.2907 -3.25201e-19)
(0.225509 3.35881 1.19961e-19)
(0.191402 3.37144 0)
(0.420098 0.442418 2.40185e-19)
(0.905712 0.924175 -1.51251e-18)
(1.07985 1.13439 -4.28066e-19)
(1.10315 1.17045 -1.04122e-19)
(1.05981 1.16572 1.16953e-19)
(1.0041 1.13484 -8.1801e-19)
(0.938319 1.10586 5.47302e-20)
(0.864666 1.07178 3.47309e-19)
(0.779081 1.03485 0)
(0.678922 0.993369 -2.05374e-20)
(0.571103 0.945782 1.86826e-20)
(0.465335 0.902241 0)
(0.382353 0.874504 0)
(0.328208 0.999107 -4.10538e-19)
(0.294087 1.83433 8.29207e-21)
(0.290318 2.92931 -1.51262e-19)
(0.309082 3.29521 2.63619e-19)
(0.28203 3.39793 1.21088e-19)
(0.214149 3.42371 -1.75785e-21)
(0.188071 3.43231 -1.27851e-21)
(0.417984 0.451111 4.62978e-19)
(0.899751 0.941984 1.44825e-18)
(1.07053 1.15496 5.25823e-19)
(1.09312 1.19167 0)
(1.04965 1.18681 0)
(0.994115 1.15596 6.26804e-19)
(0.928585 1.12743 -3.78709e-19)
(0.855245 1.09394 -3.20194e-19)
(0.769943 1.05854 -1.20444e-20)
(0.669444 1.01972 1.10925e-19)
(0.556843 0.981313 -3.43001e-19)
(0.44725 0.945391 0)
(0.365333 0.949383 0)
(0.345884 1.34408 -2.3588e-19)
(0.357257 2.44408 -3.04812e-19)
(0.399103 3.19929 0)
(0.424983 3.3832 -2.66573e-20)
(0.355084 3.44827 1.91744e-19)
(0.280301 3.49262 -3.63678e-19)
(0.255606 3.51878 2.22737e-19)
(0.414953 0.460252 -8.76869e-19)
(0.892012 0.958691 -6.89369e-19)
(1.05989 1.17496 0)
(1.08225 1.21293 0)
(1.03882 1.20843 0)
(0.983704 1.17772 0)
(0.918377 1.14947 4.0387e-19)
(0.84532 1.11663 -4.25231e-19)
(0.760181 1.08218 0)
(0.660019 1.04524 -9.55887e-20)
(0.551322 1.00548 5.76916e-19)
(0.451222 0.974794 2.83037e-20)
(0.402245 1.06666 4.59868e-20)
(0.406936 1.72402 3.54738e-19)
(0.426656 2.87997 -1.25764e-19)
(0.462656 3.32932 0)
(0.445043 3.45988 -3.71059e-20)
(0.355123 3.54906 9.8916e-20)
(0.271321 3.61833 3.22383e-19)
(0.195231 3.59839 -2.69663e-19)
(0.411939 0.469443 4.1558e-19)
(0.884602 0.978503 -6.79138e-19)
(1.04884 1.19774 0)
(1.0706 1.23606 -1.66805e-19)
(1.02719 1.23117 6.3145e-19)
(0.972376 1.20022 0)
(0.907568 1.17223 0)
(0.835157 1.13973 7.98786e-19)
(0.750722 1.10656 9.25997e-21)
(0.651219 1.07239 -7.73499e-21)
(0.537957 1.04075 -2.52204e-19)
(0.447655 1.0325 1.83872e-19)
(0.408638 1.23374 0)
(0.44284 2.1419 -1.70766e-19)
(0.49222 3.13718 1.36943e-19)
(0.553829 3.4367 -1.44773e-20)
(0.547539 3.54045 0)
(0.478501 3.63379 -1.76034e-19)