/*--------------------------------*- C++ -*----------------------------------*\
| =========                 |                                                 |
| \\      /  F ield         | OpenFOAM: The Open Source CFD Toolbox           |
|  \\    /   O peration     | Version:  v2012                                 |
|   \\  /    A nd           | Website:  www.openfoam.com                      |
|    \\/     M anipulation  |                                                 |
\*---------------------------------------------------------------------------*/
FoamFile
{
    version     2.0;
    format      ascii;
    class       volScalarField;
    location    "36";
    object      p;
}
// * * * * * * * * * * * * * * * * * * * * * * * * * * * * * * * * * * * * * //

dimensions      [0 2 -2 0 0 0 0];


internalField   nonuniform List<scalar> 
2200
(
0.869289
0.847788
0.831878
0.816208
0.801593
0.789062
0.77869
0.770551
0.764807
0.761792
0.762185
0.765919
0.772188
0.780696
0.791332
0.804061
0.818818
0.834673
0.85068
0.872187
0.801743
0.798484
0.795557
0.791428
0.785948
0.779458
0.772819
0.766836
0.762283
0.759813
0.760208
0.763429
0.768536
0.774935
0.781876
0.788592
0.794231
0.798359
0.801248
0.804581
0.761847
0.762065
0.764108
0.76544
0.765824
0.764954
0.762945
0.760245
0.757665
0.756116
0.756581
0.758925
0.762109
0.765258
0.767561
0.768561
0.768269
0.767211
0.76548
0.765237
0.73934
0.740784
0.743391
0.745857
0.748292
0.750297
0.751436
0.751625
0.751201
0.750831
0.751363
0.752623
0.753736
0.754058
0.753308
0.751598
0.749404
0.747159
0.744552
0.74314
0.725103
0.727078
0.729889
0.732704
0.735531
0.738329
0.740753
0.742566
0.743719
0.744402
0.745009
0.745378
0.745038
0.743853
0.741921
0.739502
0.736917
0.734178
0.731391
0.729459
0.717844
0.719445
0.721634
0.724144
0.726787
0.729425
0.731963
0.734332
0.736279
0.737677
0.73839
0.738268
0.737301
0.735671
0.733692
0.731468
0.729098
0.726733
0.724622
0.723045
0.71445
0.715469
0.716733
0.718597
0.720739
0.722886
0.725029
0.72725
0.729377
0.731106
0.731963
0.731781
0.730856
0.729524
0.728037
0.726382
0.724607
0.722973
0.721829
0.720817
0.711951
0.712617
0.713248
0.714547
0.716152
0.717802
0.719491
0.721309
0.723218
0.724998
0.72604
0.726139
0.72567
0.724925
0.724026
0.722987
0.721842
0.720859
0.720378
0.719706
0.708926
0.709375
0.709771
0.710762
0.712008
0.713361
0.714799
0.716352
0.718031
0.719753
0.721025
0.721601
0.721663
0.72144
0.720989
0.720372
0.719672
0.719048
0.718818
0.718359
0.705032
0.705327
0.705693
0.706584
0.707713
0.708991
0.710413
0.71197
0.713656
0.715446
0.717013
0.718024
0.718502
0.718587
0.7184
0.718025
0.71755
0.717088
0.7169
0.71659
0.700534
0.700721
0.701113
0.701998
0.703154
0.704512
0.706053
0.707749
0.709593
0.711601
0.71352
0.714922
0.715724
0.716048
0.716028
0.7158
0.715447
0.715084
0.714904
0.714695
0.695732
0.695863
0.696242
0.697105
0.698321
0.699822
0.701559
0.7035
0.705645
0.708019
0.71039
0.712246
0.713354
0.713885
0.713997
0.713847
0.713607
0.713362
0.713214
0.713064
0.690657
0.690745
0.691122
0.69195
0.693194
0.694809
0.696788
0.699122
0.701797
0.704779
0.707709
0.709927
0.711279
0.711968
0.712247
0.712309
0.712251
0.712141
0.712034
0.711909
0.685118
0.68517
0.685548
0.686421
0.687755
0.689496
0.691666
0.69434
0.697578
0.701283
0.704856
0.707488
0.709182
0.710231
0.710874
0.711216
0.711324
0.711336
0.711283
0.71118
0.679177
0.679159
0.679578
0.68048
0.681957
0.683847
0.68618
0.689081
0.692708
0.697062
0.701473
0.704966
0.707404
0.709105
0.710208
0.710779
0.71108
0.711203
0.711198
0.71112
0.672953
0.672858
0.673268
0.674245
0.675869
0.677993
0.680601
0.683845
0.687935
0.693009
0.698468
0.703102
0.70648
0.708829
0.710362
0.711271
0.711812
0.712055
0.712103
0.712041
0.666195
0.666195
0.666524
0.667523
0.669436
0.67189
0.675016
0.678985
0.683979
0.690143
0.69683
0.702526
0.706674
0.70957
0.71154
0.712871
0.713674
0.714067
0.714173
0.714111
0.658444
0.658415
0.658856
0.660099
0.662255
0.665112
0.668909
0.673844
0.680088
0.687774
0.69595
0.702777
0.707742
0.711314
0.713861
0.715585
0.716625
0.717187
0.717362
0.717295
0.649525
0.649434
0.649969
0.651405
0.653813
0.657132
0.661619
0.667504
0.675127
0.6846
0.694679
0.703114
0.709359
0.713893
0.717142
0.719374
0.720796
0.721571
0.721821
0.721737
0.638729
0.638624
0.63921
0.640837
0.643668
0.647604
0.652935
0.660014
0.669202
0.680731
0.693131
0.703599
0.711423
0.717212
0.721391
0.724318
0.726244
0.727262
0.727592
0.727478
0.625634
0.625513
0.626197
0.62812
0.631515
0.636392
0.64309
0.65192
0.663311
0.677438
0.692472
0.705137
0.714617
0.72169
0.726862
0.73059
0.73307
0.734345
0.734744
0.734587
0.609202
0.609118
0.61009
0.612557
0.616934
0.623235
0.631806
0.64311
0.657464
0.674819
0.692886
0.707943
0.719229
0.727654
0.733873
0.73834
0.741326
0.742825
0.743275
0.743078
0.588462
0.588311
0.589625
0.592992
0.598789
0.607154
0.618426
0.632986
0.651001
0.672249
0.693924
0.711735
0.725006
0.734943
0.742285
0.747598
0.751119
0.752842
0.753344
0.753098
0.561015
0.561072
0.563194
0.567946
0.576057
0.587597
0.602613
0.621348
0.643786
0.669575
0.695335
0.716311
0.731882
0.743555
0.75225
0.758535
0.762617
0.764551
0.765076
0.764775
0.524052
0.524363
0.528031
0.535804
0.547881
0.564244
0.584481
0.608596
0.636387
0.667379
0.697654
0.722007
0.740011
0.753516
0.76363
0.771
0.775692
0.777852
0.778402
0.778007
0.474546
0.474994
0.482139
0.495161
0.513754
0.53729
0.564514
0.595311
0.629409
0.666255
0.701348
0.729169
0.749661
0.765098
0.776722
0.785121
0.790321
0.792538
0.792972
0.792544
0.408657
0.411642
0.427067
0.448574
0.47606
0.508249
0.543562
0.581903
0.623039
0.666427
0.706961
0.738963
0.762725
0.780684
0.794254
0.804258
0.810475
0.812931
0.813186
0.812958
0.333463
0.343233
0.369019
0.400533
0.438045
0.479186
0.522554
0.568658
0.617218
0.667655
0.714476
0.75153
0.779167
0.800325
0.816668
0.828657
0.836185
0.838811
0.838974
0.839155
0.266815
0.281966
0.314255
0.354202
0.401017
0.450911
0.502307
0.556181
0.612084
0.669398
0.722045
0.76366
0.794831
0.818713
0.836894
0.85039
0.85883
0.862642
0.863522
0.863491
0.216366
0.229927
0.26753
0.313324
0.36724
0.424389
0.483203
0.544389
0.607197
0.67104
0.729326
0.775211
0.809262
0.835131
0.855041
0.870066
0.87912
0.883179
0.884002
0.884093
0.174864
0.187485
0.228541
0.278212
0.337497
0.400399
0.465569
0.533233
0.602338
0.672384
0.736117
0.785595
0.822091
0.849706
0.870585
0.886341
0.895903
0.900174
0.901171
0.90128
0.139173
0.152065
0.195491
0.247963
0.311381
0.378877
0.449385
0.522643
0.597464
0.673231
0.74162
0.794316
0.832843
0.861618
0.883211
0.899102
0.909068
0.913699
0.914881
0.914993
0.108027
0.12108
0.166482
0.221403
0.288176
0.359452
0.434427
0.512482
0.592363
0.673091
0.74577
0.801402
0.841541
0.871254
0.893201
0.909335
0.919881
0.924765
0.926159
0.926261
0.0800448
0.0931691
0.140212
0.19738
0.267076
0.341574
0.420367
0.502599
0.586973
0.6725
0.749317
0.807413
0.848891
0.87933
0.901979
0.918375
0.929151
0.934294
0.935769
0.935817
0.0544481
0.0675582
0.115839
0.175147
0.247454
0.324769
0.406899
0.492816
0.58126
0.67098
0.75118
0.812058
0.855174
0.886584
0.909715
0.926351
0.937191
0.942384
0.94382
0.943609
0.0303854
0.043842
0.0929366
0.154265
0.228844
0.308648
0.39367
0.482764
0.574731
0.668217
0.752734
0.81649
0.86107
0.89327
0.916734
0.933492
0.944049
0.949276
0.950691
0.950541
0.00777561
0.0213182
0.0712295
0.134383
0.210941
0.292934
0.380464
0.472402
0.567771
0.665422
0.753821
0.81999
0.866672
0.899772
0.923386
0.940125
0.95074
0.955739
0.957257
0.957154
-0.0136017
-6.02954e-05
0.050526
0.11521
0.193449
0.277423
0.367263
0.461874
0.560421
0.661518
0.753142
0.823137
0.871931
0.905951
0.930122
0.946793
0.957284
0.962221
0.963573
0.963508
-0.0342429
-0.0204631
0.0306252
0.0965739
0.176258
0.262057
0.354029
0.451009
0.55219
0.6565
0.752674
0.826199
0.877027
0.912607
0.937071
0.953679
0.963959
0.968619
0.969929
0.969816
-0.0545454
-0.0401199
0.0113514
0.0783983
0.159327
0.246756
0.340622
0.439708
0.54342
0.651155
0.751252
0.827908
0.882078
0.919371
0.944537
0.96101
0.970733
0.975127
0.976143
0.976001
-0.0745376
-0.0592896
-0.00743534
0.0606193
0.142622
0.231473
0.327026
0.428077
0.534256
0.64501
0.748555
0.829457
0.886796
0.926449
0.952766
0.969015
0.977879
0.981435
0.982156
0.981963
-0.094064
-0.0780761
-0.0257843
0.043217
0.126148
0.216233
0.313298
0.41617
0.524519
0.637814
0.744683
0.829634
0.890963
0.933898
0.962035
0.978162
0.985531
0.987633
0.987717
0.987563
-0.113015
-0.0964734
-0.0436819
0.0262146
0.109961
0.201101
0.299472
0.403928
0.514129
0.629664
0.739769
0.828857
0.894549
0.941559
0.972546
0.989334
0.994862
0.993265
0.992518
0.993228
-0.13134
-0.114388
-0.0610679
0.00965907
0.0941224
0.186146
0.285597
0.391368
0.503178
0.620815
0.733631
0.826431
0.897002
0.948999
0.984268
1.00318
1.00762
1.00177
0.996274
0.99432
-0.149023
-0.131725
-0.077881
-0.00639792
0.0787044
0.17145
0.271762
0.378617
0.491802
0.611139
0.726037
0.822618
0.897937
0.955765
0.996986
1.02039
1.02813
1.01617
1.01314
1.01762
-0.166058
-0.148418
-0.0940632
-0.0219035
0.063765
0.157099
0.258079
0.365771
0.480049
0.600799
0.717747
0.81712
0.896726
0.960728
1.00945
1.04058
1.05542
1.02987
0.986444
0.946687
-0.182385
-0.164473
-0.109649
-0.036926
0.0492055
0.142981
0.244421
0.352689
0.467772
0.589655
0.708059
0.809259
0.892612
0.962706
1.02027
1.06272
1.09254
1.08656
1.10369
1.15743
-0.197959
-0.179942
-0.124731
-0.0516054
0.0348351
0.128862
0.230532
0.339064
0.454535
0.577101
0.696553
0.79886
0.884443
0.958896
1.02112
1.06708
1.09008
1.07954
1.04389
1.05512
-0.212751
-0.194793
-0.139267
-0.065894
0.0207236
0.114835
0.216539
0.325083
0.440577
0.563357
0.683078
0.785425
0.870622
0.945225
1.00672
1.05028
1.04754
1.00083
0.940354
0.929326
-0.226762
-0.209027
-0.153258
-0.0797965
0.00686427
0.100892
0.202449
0.310768
0.425932
0.548238
0.667327
0.768694
0.851295
0.920178
0.974913
0.991114
0.960505
0.888397
0.816077
0.798668
-0.240025
-0.22263
-0.166717
-0.0933345
-0.0067649
0.0870185
0.188257
0.296118
0.410597
0.53187
0.649687
0.748819
0.825374
0.881678
0.911886
0.903308
0.852464
0.753068
0.667001
0.647487
-0.253003
-0.23602
-0.180043
-0.106876
-0.0205181
0.0729015
0.17368
0.280879
0.394341
0.514032
0.629696
0.724868
0.794338
0.834826
0.830911
0.798435
0.693006
0.572575
0.466451
0.441567
-0.266595
-0.249981
-0.193934
-0.121049
-0.0349702
0.0580539
0.158298
0.264688
0.376874
0.494533
0.607059
0.697103
0.759527
0.7767
0.7423
0.657918
0.503485
0.352208
0.224637
0.198796
-0.281325
-0.264944
-0.208716
-0.136086
-0.0503028
0.0423425
0.142009
0.247486
0.358208
0.473391
0.581892
0.666449
0.717526
0.708147
0.653159
0.505557
0.305068
0.0919141
-0.0882352
-0.135
-0.297287
-0.280968
-0.224442
-0.152012
-0.0664891
0.0257978
0.124847
0.229305
0.338409
0.450785
0.554151
0.633251
0.669087
0.628315
0.539946
0.35041
0.115892
-0.176267
-0.500998
-0.645953
-0.314565
-0.29819
-0.241229
-0.168903
-0.0835782
0.00836048
0.106753
0.210115
0.317463
0.426708
0.52423
0.597422
0.616355
0.543377
0.405961
0.196161
-0.0434878
-0.393981
-0.989643
-1.56613
-0.333209
-0.316637
-0.259136
-0.186821
-0.101587
-0.00995357
0.0877884
0.19001
0.295516
0.401588
0.493302
0.558664
0.559981
0.467642
0.275498
0.0353814
-0.174783
-0.418932
-0.991497
-2.54231
-0.353227
-0.336473
-0.278263
-0.20588
-0.120671
-0.0293369
0.0677226
0.168745
0.272278
0.375026
0.460927
0.517086
0.499396
0.407751
0.178061
-0.0678954
-0.223014
-0.267805
-0.268031
-0.66453
-0.374507
-0.357703
-0.298764
-0.226384
-0.141219
-0.0502629
0.0459647
0.145562
0.246825
0.345627
0.426093
0.471935
0.4379
0.359057
0.12614
-0.0860266
-0.203899
-0.215455
-0.164996
-0.207274
-0.39702
-0.380283
-0.320636
-0.248368
-0.16329
-0.0728452
0.0223748
0.120338
0.21897
0.313221
0.389044
0.425439
0.38357
0.307792
0.0918987
-0.0793449
-0.165518
-0.173249
-0.220539
-0.227463
-0.420648
-0.403877
-0.343788
-0.271844
-0.186865
-0.0970793
-0.00306702
0.0929982
0.18871
0.278289
0.349603
0.37733
0.335434
0.246934
0.0638786
-0.069913
-0.146124
-0.115917
-0.138904
-0.140715
-0.445263
-0.428211
-0.368135
-0.296678
-0.211771
-0.122878
-0.0302489
0.0637353
0.156222
0.241262
0.308048
0.325788
0.293416
0.180148
0.0295637
-0.0641758
-0.114574
-0.154281
-0.130893
-0.138659
-0.470334
-0.452942
-0.393551
-0.322716
-0.237788
-0.150036
-0.0589634
0.0327633
0.121643
0.202373
0.265112
0.272456
0.250882
0.116504
-0.00965644
-0.0777065
-0.0677377
-0.128782
-0.104037
-0.109845
-0.495301
-0.477729
-0.41981
-0.349471
-0.264547
-0.178287
-0.0888699
0.00048832
0.085334
0.162099
0.222183
0.220769
0.200876
0.0636392
-0.039903
-0.0971189
-0.0724455
-0.102333
-0.104303
-0.104834
-0.519535
-0.502249
-0.446042
-0.37626
-0.291737
-0.207195
-0.119515
-0.0325724
0.0480057
0.120775
0.179586
0.172003
0.145098
0.0186097
-0.0579801
-0.0964911
-0.117091
-0.10496
-0.110598
-0.107563
-0.542361
-0.525784
-0.471243
-0.402201
-0.3189
-0.236178
-0.150266
-0.0658241
0.0105216
0.0788021
0.136949
0.124863
0.0866678
-0.0182417
-0.0732491
-0.085119
-0.139893
-0.105592
-0.112635
-0.106027
-0.562829
-0.54738
-0.494494
-0.426483
-0.345602
-0.264411
-0.180342
-0.0984204
-0.0258479
0.0369786
0.0954781
0.0796507
0.0304135
-0.0438852
-0.0886853
-0.0836934
-0.141089
-0.0948692
-0.101324
-0.0951235
-0.579734
-0.565791
-0.515102
-0.448518
-0.37062
-0.290835
-0.20882
-0.129504
-0.0601609
-0.00388832
0.054562
0.0343464
-0.0272581
-0.0622699
-0.0724629
-0.054298
-0.0657995
-0.0758239
-0.0855261
-0.0871328
-0.591987
-0.580003
-0.532102
-0.467556
-0.3925
-0.314434
-0.234702
-0.157913
-0.0910824
-0.0417747
0.0159935
-0.00718502
-0.092423
-0.091804
-0.0139897
0.0168953
-0.013302
-0.0564748
-0.0753012
-0.0892371
-0.598473
-0.588695
-0.544458
-0.482218
-0.409707
-0.33401
-0.256743
-0.182306
-0.11728
-0.0737056
-0.0201016
-0.0401803
-0.163758
-0.225623
-0.179553
-0.212969
-0.220654
-0.222733
-0.225572
-0.219523
-0.598625
-0.590837
-0.550571
-0.49116
-0.421359
-0.348244
-0.273475
-0.20112
-0.137402
-0.0963921
-0.0518169
-0.0669452
-0.238344
-0.484976
-0.740743
-0.876594
-0.901378
-0.852459
-0.786757
-0.7245
-0.591482
-0.584266
-0.548796
-0.493068
-0.426348
-0.35598
-0.283513
-0.212553
-0.148651
-0.106105
-0.0705474
-0.077181
-0.268302
-0.621983
-1.08824
-1.30931
-1.3333
-1.25142
-1.15635
-1.08425
-0.573215
-0.56561
-0.536806
-0.486606
-0.423843
-0.356269
-0.285824
-0.215051
-0.148146
-0.0987925
-0.063215
-0.0465055
-0.157015
-0.338996
-0.581762
-0.656855
-0.588156
-0.506305
-0.386439
-0.321814
-0.537786
-0.530948
-0.513516
-0.47183
-0.413682
-0.348743
-0.279862
-0.207698
-0.134397
-0.0698046
-0.0177114
0.0646205
0.157995
0.342501
0.499399
0.657232
0.80162
0.896008
0.950702
1.00037
-0.491805
-0.48801
-0.48257
-0.449584
-0.397624
-0.334997
-0.265921
-0.190925
-0.108649
-0.020493
0.0662231
0.215717
0.458324
0.843782
1.21529
1.52294
1.74173
1.87673
1.94416
1.96596
-0.457994
-0.457789
-0.452143
-0.426842
-0.379599
-0.317714
-0.246635
-0.167834
-0.0774009
0.0303011
0.146049
0.297108
0.598256
0.997521
1.38722
1.71812
1.95669
2.09447
2.1548
2.17077
-0.426165
-0.427078
-0.421336
-0.405898
-0.363048
-0.301024
-0.227106
-0.145765
-0.0532026
0.0571126
0.174662
0.280758
0.536503
0.864766
1.17424
1.4377
1.64322
1.7672
1.82419
1.84123
-0.396746
-0.395911
-0.395375
-0.388465
-0.346023
-0.284421
-0.21003
-0.12825
-0.0397673
0.0602803
0.170542
0.240418
0.434013
0.700171
0.942013
1.14691
1.31446
1.41939
1.46643
1.4791
-0.377774
-0.376441
-0.382034
-0.371881
-0.329154
-0.267099
-0.194001
-0.115531
-0.0344895
0.0501445
0.151721
0.20382
0.333932
0.540583
0.731117
0.885473
1.00926
1.0917
1.12891
1.13892
-0.343689
-0.343529
-0.350186
-0.340207
-0.302563
-0.243361
-0.175013
-0.102701
-0.030421
0.0390122
0.130377
0.176757
0.256136
0.410601
0.559795
0.674924
0.764082
0.824761
0.851242
0.856817
-0.282469
-0.284079
-0.288628
-0.280939
-0.252085
-0.203481
-0.147321
-0.0855007
-0.0230985
0.0329792
0.111816
0.156199
0.20303
0.316085
0.429095
0.512593
0.575729
0.619066
0.637519
0.643593
-0.196079
-0.198302
-0.200367
-0.195538
-0.176303
-0.144902
-0.106091
-0.0603117
-0.00942168
0.0352945
0.0989265
0.139485
0.169605
0.253799
0.335245
0.393267
0.43805
0.473015
0.485684
0.48908
-0.100287
-0.101561
-0.103398
-0.101828
-0.0929319
-0.077164
-0.0554709
-0.0267906
0.0109714
0.0441158
0.0919287
0.124994
0.146795
0.211943
0.268801
0.308823
0.341364
0.363167
0.373799
0.377292
-0.0182739
-0.019362
-0.0206955
-0.0214648
-0.0197442
-0.0147658
-0.00570828
0.00947
0.0336118
0.0550803
0.088379
0.113759
0.129484
0.179219
0.220186
0.247112
0.268513
0.281446
0.287427
0.289064
0.0430069
0.0423078
0.0408969
0.0381576
0.034902
0.033415
0.0347864
0.0406109
0.052963
0.0657691
0.0860821
0.106339
0.11693
0.153727
0.182603
0.201701
0.213911
0.220308
0.22193
0.221379
0.0810002
0.0804832
0.0791184
0.0754056
0.069393
0.0644945
0.0617694
0.0619951
0.0668661
0.0745462
0.0863348
0.0999238
0.110063
0.132744
0.152019
0.164748
0.171305
0.17328
0.172588
0.171036
0.101058
0.10062
0.0993584
0.095597
0.0890131
0.0826993
0.0778037
0.0750306
0.0763424
0.0808174
0.0888076
0.0970524
0.10561
0.117056
0.126572
0.131862
0.134872
0.134198
0.132347
0.131062
0.109402
0.109045
0.107981
0.104838
0.099156
0.0930474
0.0876012
0.083464
0.0829922
0.0843521
0.0904194
0.0956549
0.100356
0.105976
0.109371
0.109937
0.110025
0.109119
0.107019
0.105487
0.111472
0.111186
0.110319
0.107933
0.103515
0.098537
0.0935942
0.0890033
0.0872528
0.0858713
0.0897635
0.0925502
0.0936408
0.0969438
0.0995947
0.100732
0.100168
0.0991775
0.0974303
0.0952645
0.110224
0.110008
0.109299
0.107614
0.104323
0.100482
0.0963133
0.0919428
0.0895353
0.0865504
0.0873914
0.0870273
0.0865632
0.0888677
0.0916046
0.0941947
0.0949827
0.0926014
0.090906
0.0893549
0.107687
0.107515
0.106941
0.105664
0.10313
0.100268
0.0968665
0.0931694
0.0906505
0.0869811
0.0851144
0.0829328
0.0822404
0.0836269
0.0863551
0.0881173
0.0889147
0.0885739
0.0877094
0.0864158
0.104729
0.104581
0.104136
0.103209
0.101362
0.0992573
0.0965867
0.093442
0.0907324
0.0865885
0.0834302
0.0801437
0.079736
0.0820826
0.0855909
0.0881387
0.0893818
0.0921296
0.0935832
0.0914806
0.102064
0.101932
0.101629
0.100918
0.0995538
0.0980466
0.095976
0.0931153
0.0903804
0.0856777
0.0813798
0.0762029
0.0727653
0.0789256
0.0864067
0.0913939
0.0971208
0.100165
0.101591
0.0997119
0.0997326
0.0996082
0.099418
0.0988934
0.0978977
0.0968147
0.0958265
0.0932563
0.0911208
0.0863751
0.0802909
0.0747913
0.0675544
0.073824
0.0847224
0.0913418
0.0964819
0.0970852
0.0966197
0.0959672
0.0976658
0.0975772
0.0974913
0.0971012
0.0965395
0.0959193
0.0959595
0.0943538
0.093075
0.0888297
0.0826533
0.0746069
0.0675988
0.0730942
0.0795884
0.0830613
0.0823497
0.0825628
0.0834726
0.0830473
0.0949982
0.0950004
0.0951723
0.095429
0.0956978
0.0952138
0.0951839
0.0958031
0.0943646
0.0914342
0.0912082
0.0791412
0.0690269
0.0751618
0.0787665
0.0804923
0.0847239
0.089448
0.0928835
0.0907434
0.0906949
0.0906727
0.0908076
0.0913217
0.0919973
0.0926615
0.0927216
0.0962114
0.0986892
0.0993945
0.0999846
0.0902326
0.0780527
0.0814373
0.0859815
0.094628
0.108893
0.116303
0.117469
0.11428
0.0844283
0.0845416
0.0849253
0.0856618
0.0863137
0.0888685
0.0906498
0.093885
0.0991997
0.101563
0.110291
0.103782
0.0892074
0.0850473
0.084797
0.0899652
0.0940869
0.0941121
0.0928106
0.0902345
0.0751134
0.0752615
0.0759364
0.0773083
0.07966
0.0846809
0.089653
0.0945286
0.0988546
0.106304
0.109051
0.110145
0.0936388
0.0788258
0.0619246
0.0496344
0.0348561
0.0248419
0.0259698
0.0259845
0.0618452
0.0622561
0.063545
0.0660067
0.0688022
0.0724978
0.0774522
0.0825024
0.0914834
0.10074
0.106078
0.107094
0.0903948
0.0660002
0.0383755
0.0202813
0.00719636
-0.0058346
-0.00960409
-0.00418666
0.0398364
0.0399741
0.0407524
0.0440874
0.0473366
0.0510915
0.055874
0.0622831
0.0716588
0.0742206
0.083706
0.0795338
0.0777601
0.0517957
0.0344512
0.0218384
0.020443
0.0197735
0.00834184
0.0123826
0.0132102
0.0129409
0.0121803
0.0114121
0.0114568
0.0140936
0.018107
0.0239381
0.0276696
0.0262515
0.0374619
0.0435265
0.0465435
0.0287177
0.0275204
0.0182682
0.00959451
0.0140821
0.0101375
0.012787
-1.00442
-0.148998
0.121894
0.402959
0.590138
0.751625
0.885149
1.02075
1.1671
1.24579
-0.0106481
0.403309
0.424483
0.616038
0.7454
0.861007
0.961097
1.04968
1.07837
1.0353
0.376339
0.594824
0.634181
0.772622
0.862182
0.944937
1.01309
1.06411
1.06704
1.08032
0.612796
0.759447
0.79579
0.901136
0.958433
1.01898
1.06479
1.09774
1.10719
1.1306
0.795496
0.899571
0.929224
0.999801
1.0441
1.08695
1.11967
1.14426
1.15434
1.18569
0.941546
1.01183
1.04236
1.08669
1.12328
1.15411
1.17888
1.19974
1.21416
1.24228
1.06226
1.11379
1.13955
1.16813
1.19639
1.22055
1.24082
1.2602
1.27528
1.30166
1.16693
1.20452
1.22578
1.24679
1.26804
1.28774
1.30532
1.32354
1.33847
1.36212
1.2615
1.29047
1.3075
1.32308
1.33949
1.35575
1.37141
1.38841
1.40202
1.42434
1.35029
1.37098
1.38604
1.39939
1.41314
1.42704
1.44058
1.45518
1.46672
1.48637
1.43627
1.45216
1.4661
1.47805
1.49006
1.50171
1.51283
1.52449
1.53214
1.54896
1.5218
1.5347
1.54848
1.56013
1.57069
1.58042
1.58919
1.59741
1.60097
1.61225
1.61103
1.62203
1.6355
1.64472
1.65215
1.65934
1.66652
1.67304
1.67407
1.68148
1.70947
1.7142
1.72224
1.72672
1.73001
1.73446
1.74046
1.74819
1.75204
1.76192
1.82275
1.80906
1.80163
1.79602
1.79336
1.79476
1.80121
1.8136
1.82839
1.85805
1.94371
1.88795
1.8571
1.84002
1.83187
1.83183
1.84058
1.86013
1.89208
1.96129
)
;

boundaryField
{
    wall-4
    {
        type            zeroGradient;
    }
    pressure-outlet-7
    {
        type            fixedValue;
        value           uniform 0;
    }
    velocity-inlet-6
    {
        type            zeroGradient;
    }
    velocity-inlet-5
    {
        type            zeroGradient;
    }
    frontAndBackPlanes
    {
        type            empty;
    }
}


// ************************************************************************* //
