/*--------------------------------*- C++ -*----------------------------------*\
| =========                 |                                                 |
| \\      /  F ield         | OpenFOAM: The Open Source CFD Toolbox           |
|  \\    /   O peration     | Version:  v2012                                 |
|   \\  /    A nd           | Website:  www.openfoam.com                      |
|    \\/     M anipulation  |                                                 |
\*---------------------------------------------------------------------------*/
FoamFile
{
    version     2.0;
    format      ascii;
    class       surfaceScalarField;
    location    "36";
    object      phi;
}
// * * * * * * * * * * * * * * * * * * * * * * * * * * * * * * * * * * * * * //

dimensions      [0 3 -1 0 0 0 0];
oriented        oriented;


internalField   nonuniform List<scalar> 
4262
(
0.107146
0.470842
0.0955961
0.705136
0.0694396
0.85846
0.0474793
1.02072
0.0311526
1.21484
0.0199199
1.44945
0.0124425
1.73334
0.00722929
2.07625
0.00334733
2.48913
-0.000235435
2.98588
-0.00378881
2.98585
-0.00763975
2.48909
-0.0128263
2.07622
-0.0202084
1.73325
-0.0312406
1.44925
-0.0473598
1.21464
-0.0691677
1.02057
-0.0953631
0.858498
-0.107111
0.705334
0.470877
0.112879
0.357963
0.135288
0.682728
0.120345
0.873402
0.0977222
1.04335
0.0744696
1.2381
0.0528362
1.47109
0.0345086
1.75167
0.0203119
2.09045
0.00897481
2.50046
-0.00111133
2.99596
-0.0112441
2.99598
-0.0224053
2.50026
-0.0363573
2.09017
-0.0543416
1.75123
-0.075953
1.47086
-0.0995245
1.23821
-0.122521
1.04357
-0.13654
0.872518
-0.113403
0.682197
0.357474
0.092096
0.265867
0.125084
0.649739
0.121281
0.877206
0.105061
1.05957
0.0863251
1.25683
0.0671929
1.49022
0.0484368
1.77042
0.0305644
2.10832
0.0141688
2.51686
-0.00171595
3.01185
-0.0174588
3.01172
-0.0336222
2.51642
-0.0511407
2.10769
-0.069633
1.76972
-0.0882415
1.48947
-0.105882
1.25585
-0.12057
1.05826
-0.125399
0.877347
-0.092368
0.649166
0.265106
0.064084
0.201783
0.105004
0.608819
0.106839
0.875371
0.0954974
1.07091
0.081586
1.27074
0.0668213
1.50498
0.0506541
1.78659
0.0334684
2.1255
0.0158283
2.5345
-0.00270893
3.03038
-0.0209167
3.02993
-0.0378996
2.5334
-0.0543736
2.12417
-0.0698839
1.78523
-0.0839848
1.50357
-0.0977193
1.26958
-0.109323
1.06986
-0.106509
0.874534
-0.0646764
0.607333
0.200429
0.0374482
0.164335
0.0806794
0.565588
0.091036
0.865014
0.0839634
1.07798
0.0716201
1.28309
0.0599468
1.51666
0.0470388
1.7995
0.0322302
2.14031
0.0154846
2.55124
-0.00346851
3.04934
-0.022195
3.04866
-0.038486
2.54969
-0.0527307
2.13841
-0.0649419
1.79744
-0.0761055
1.51474
-0.0879275
1.2814
-0.0942565
1.07619
-0.0827385
0.863016
-0.038193
0.562788
0.162236
0.0195202
0.144814
0.0574449
0.527663
0.0730119
0.849447
0.071027
1.07997
0.0623866
1.29173
0.0516682
1.52737
0.0404282
1.81074
0.0278466
2.15289
0.0128239
2.56627
-0.00480766
3.06697
-0.0220974
3.06595
-0.0362873
2.56388
-0.0477484
2.14987
-0.0580194
1.80771
-0.0678223
1.52454
-0.0754653
1.28905
-0.0764409
1.07716
-0.0595784
0.846153
-0.0202373
0.523447
0.141999
0.010719
0.134095
0.0425537
0.495828
0.0587573
0.833244
0.0590775
1.07965
0.0529503
1.29785
0.0437071
1.53662
0.0336813
1.82077
0.0226087
2.16397
0.00980701
2.57907
-0.0056749
3.08245
-0.0208113
3.08108
-0.0327424
2.57581
-0.0427235
2.15985
-0.0515975
1.81659
-0.0597811
1.53272
-0.0647443
1.29401
-0.0631412
1.07556
-0.0451676
0.82818
-0.0115107
0.48979
0.130488
0.00656122
0.127534
0.0329519
0.469438
0.0493174
0.816878
0.0509264
1.07804
0.0458795
1.3029
0.0375657
1.54493
0.028142
1.83019
0.0176212
2.17449
0.00593028
2.59076
-0.00765441
3.09603
-0.0206808
3.09411
-0.0311428
2.58628
-0.0401939
2.16891
-0.0478015
1.8242
-0.0545095
1.53943
-0.0579912
1.29749
-0.0547674
1.07234
-0.0362567
0.809669
-0.00759147
0.461124
0.122897
0.00471985
0.122814
0.0266198
0.447538
0.0425191
0.800979
0.0448634
1.07569
0.0405201
1.30724
0.0331891
1.55226
0.0244769
1.8389
0.0145372
2.18443
0.00340787
2.60189
-0.00907779
3.10852
-0.0208822
3.10591
-0.0305585
2.59595
-0.0387211
2.17707
-0.0459255
1.8314
-0.0517464
1.54525
-0.0543515
1.3001
-0.0497112
1.0677
-0.0307716
0.790729
-0.00599741
0.43635
0.116899
0.00379468
0.11902
0.0217819
0.429551
0.0371125
0.785648
0.0401926
1.07261
0.0362482
1.31119
0.0292998
1.55921
0.0209509
1.84725
0.0112347
2.19414
0.000260598
2.61286
-0.0117627
3.12054
-0.0229711
3.11712
-0.0319616
2.60494
-0.0394406
2.18455
-0.0453242
1.83728
-0.0498324
1.54976
-0.0512955
1.30156
-0.0454145
1.06182
-0.0266163
0.771931
-0.00530258
0.415037
0.111597
0.00296611
0.116054
0.01721
0.415307
0.031183
0.771675
0.0345077
1.06929
0.0310058
1.31469
0.0246312
1.56559
0.0168228
1.85506
0.00754301
2.20342
-0.00296323
2.62337
-0.0142636
3.13184
-0.0247023
3.12756
-0.0330182
2.61326
-0.0394856
2.19101
-0.0445617
1.84236
-0.0482398
1.55344
-0.0488377
1.30216
-0.0418266
1.0548
-0.0232229
0.753327
-0.00485754
0.396671
0.106739
0.00213009
0.113923
0.0128884
0.404548
0.0250644
0.759499
0.0284575
1.06589
0.0252125
1.31794
0.0191654
1.57163
0.0116357
1.86259
0.00287155
2.21219
-0.0070459
2.63329
-0.0177211
3.14252
-0.0271106
3.13695
-0.0343374
2.62049
-0.0397725
2.19645
-0.0438524
1.84644
-0.0463981
1.55598
-0.0459391
1.3017
-0.0380297
1.04689
-0.020205
0.735503
-0.00441972
0.380886
0.10232
0.00135919
0.112564
0.00931956
0.396588
0.0197596
0.749059
0.0223793
1.06328
0.0188223
1.32149
0.0128884
1.57757
0.00579627
1.86968
-0.00234918
2.22033
-0.0115828
2.64252
-0.0217174
3.15265
-0.0304162
3.14565
-0.036286
2.62636
-0.0401931
2.20036
-0.0431057
1.84935
-0.0448911
1.55777
-0.0439442
1.30075
-0.035406
1.03836
-0.0181303
0.718227
-0.00414995
0.366906
0.0981696
0.000692899
0.111871
0.00611752
0.391163
0.0143025
0.740874
0.0165166
1.06106
0.0125948
1.32541
0.00599592
1.58417
-0.00158565
1.87726
-0.00963877
2.22839
-0.0182639
2.65115
-0.0273368
3.16173
-0.0344012
3.15271
-0.0385649
2.63052
-0.041337
2.20313
-0.0437395
1.85176
-0.0447515
1.55878
-0.0427898
1.29879
-0.0333959
1.02896
-0.0167129
0.701544
-0.0041103
0.354303
0.0940593
-0.00013878
0.11201
0.00228065
0.388744
0.0081351
0.73502
0.00932093
1.05988
0.005344
1.32939
-0.00118196
1.59069
-0.00876096
1.88484
-0.0169199
2.23655
-0.0251815
2.65941
-0.0330353
3.16958
-0.0388503
3.15853
-0.0421144
2.63378
-0.0439641
2.20498
-0.0453327
1.85312
-0.0450132
1.55846
-0.0419833
1.29576
-0.0318033
1.01878
-0.0155105
0.685251
-0.00400253
0.342795
0.0900567
-0.00113935
0.113149
-0.0014135
0.389018
0.00205601
0.73155
0.00235114
1.05958
-0.00202372
1.33377
-0.00877553
1.59744
-0.0166266
1.89269
-0.0249658
2.24488
-0.0334832
2.66792
-0.0411403
3.17724
-0.0460288
3.16342
-0.0480346
2.63579
-0.0486618
2.20561
-0.0481227
1.85258
-0.0463858
1.55672
-0.04162
1.291
-0.0301855
1.00735
-0.0144117
0.669477
-0.00386293
0.332246
0.0861938
-0.00238686
0.115536
-0.00485215
0.391483
-0.00539337
0.732091
-0.00665309
1.06084
-0.0110605
1.33817
-0.0176412
1.60402
-0.0254845
1.90054
-0.0342058
2.25361
-0.04314
2.67686
-0.0506894
3.18479
-0.0547162
3.16744
-0.0554304
2.6365
-0.0540407
2.20422
-0.0516743
1.85022
-0.0483784
1.55343
-0.042006
1.28462
-0.0296777
0.99502
-0.0140822
0.653882
-0.00386857
0.322033
0.0823252
-0.0036442
0.119181
-0.00913897
0.396978
-0.0127288
0.735681
-0.0160141
1.06413
-0.0214764
1.34364
-0.0288503
1.6114
-0.0373341
1.90902
-0.0464307
2.2627
-0.055178
2.68561
-0.0620694
3.19168
-0.064838
3.17021
-0.0638543
2.63552
-0.0609433
2.20131
-0.0572246
1.8465
-0.0520987
1.5483
-0.0436776
1.2762
-0.0299247
0.981267
-0.0143786
0.638336
-0.00411302
0.311767
0.0782122
-0.00521845
0.124399
-0.0144626
0.406222
-0.0219916
0.74321
-0.0277883
1.06992
-0.034064
1.34991
-0.0423993
1.61973
-0.0519045
1.91852
-0.0617951
2.27259
-0.0709441
2.69475
-0.0769664
3.1977
-0.0773751
3.17062
-0.0741374
2.63228
-0.0690255
2.19619
-0.0629738
1.84045
-0.0556814
1.54101
-0.0458294
1.26635
-0.0312592
0.966697
-0.0154275
0.622504
-0.004484
0.300824
0.0737282
-0.00644856
0.130848
-0.0186477
0.418421
-0.030146
0.754709
-0.0388839
1.07866
-0.0475009
1.35853
-0.0577296
1.62996
-0.0687703
1.92957
-0.079917
2.28374
-0.0891333
2.70397
-0.0939313
3.2025
-0.092727
3.16942
-0.08756
2.62711
-0.0802769
2.18891
-0.0724161
1.83259
-0.0632938
1.53189
-0.0511391
1.25419
-0.034538
0.950096
-0.0174548
0.605421
-0.00511228
0.288481
0.0686159
-0.00865902
0.139507
-0.0249143
0.434677
-0.041052
0.770846
-0.0532691
1.09088
-0.0638377
1.3691
-0.0760306
1.64215
-0.0891177
1.94265
-0.101702
2.29632
-0.112008
2.71428
-0.116957
3.20745
-0.113384
3.16584
-0.104861
2.61859
-0.0945839
2.17863
-0.0836524
1.82166
-0.0720756
1.52031
-0.0580669
1.24019
-0.0397954
0.931824
-0.0205898
0.586215
-0.00598017
0.273871
0.0626358
-0.0109098
0.150416
-0.0311952
0.454962
-0.0519886
0.79164
-0.0684668
1.10735
-0.0833037
1.38393
-0.0991887
1.65804
-0.114759
1.95822
-0.129092
2.31066
-0.139188
2.72437
-0.141793
3.21005
-0.135339
3.15939
-0.124514
2.60777
-0.112125
2.16624
-0.0996762
1.80921
-0.0861772
1.50681
-0.069158
1.22317
-0.0471538
0.90982
-0.0244037
0.563465
-0.00700286
0.256471
0.0556329
-0.0155197
0.165936
-0.0427674
0.48221
-0.0695104
0.818383
-0.0909082
1.12875
-0.109428
1.40245
-0.128332
1.67694
-0.146893
1.97678
-0.162683
2.32645
-0.173061
2.73475
-0.174793
3.21179
-0.166016
3.15061
-0.151226
2.59298
-0.134695
2.14971
-0.118098
1.79261
-0.10106
1.48977
-0.080768
1.20288
-0.0553
0.884352
-0.0286686
0.536834
-0.00806222
0.235864
0.0475707
-0.0193913
0.185327
-0.054666
0.517485
-0.0899975
0.853714
-0.117639
1.15639
-0.142002
1.42682
-0.166206
1.70115
-0.187432
1.99801
-0.20431
2.34332
-0.213665
2.74411
-0.211546
3.20967
-0.19729
3.13636
-0.178705
2.57439
-0.15987
2.13088
-0.141409
1.77415
-0.121536
1.4699
-0.0963498
1.17769
-0.064941
0.852943
-0.0328742
0.504767
-0.00886135
0.211851
0.0387093
-0.0326324
0.21796
-0.0800941
0.564946
-0.123835
0.897455
-0.158455
1.19101
-0.188843
1.4572
-0.215841
1.72815
-0.23846
2.02063
-0.255
2.35986
-0.262529
2.75163
-0.257515
3.20465
-0.240652
3.11949
-0.218737
2.55248
-0.194898
2.10704
-0.17038
1.74963
-0.144329
1.44385
-0.113061
1.14642
-0.0756385
0.815521
-0.0380225
0.467151
-0.0098972
0.183726
0.0288121
-0.0469997
0.264959
-0.118141
0.636087
-0.177078
0.956392
-0.21799
1.23193
-0.252416
1.49163
-0.281349
1.75708
-0.303172
2.04245
-0.316944
2.37364
-0.31964
2.75433
-0.307887
3.1929
-0.283421
3.09503
-0.255296
2.52435
-0.227567
2.07931
-0.200782
1.72285
-0.17096
1.41403
-0.132864
1.10832
-0.0872586
0.769916
-0.0413823
0.421275
-0.00976066
0.152104
0.0190515
-0.0329172
0.297877
-0.0929176
0.696088
-0.14714
1.01061
-0.192149
1.27694
-0.233825
1.53331
-0.269351
1.79261
-0.30322
2.07632
-0.33324
2.40366
-0.355047
2.77614
-0.362828
3.20068
-0.352449
3.08465
-0.330635
2.50254
-0.299684
2.04836
-0.258391
1.68155
-0.209124
1.36476
-0.152383
1.05158
-0.0905641
0.708097
-0.0371713
0.367882
-0.00817135
0.123104
0.0108801
-0.0114973
0.309374
-0.0433278
0.727918
-0.0817423
1.04903
-0.118594
1.31379
-0.154671
1.56938
-0.188408
1.82634
-0.219792
2.1077
-0.246229
2.43009
-0.263866
2.79377
-0.266327
3.20314
-0.250161
3.06848
-0.220346
2.47272
-0.181902
2.00992
-0.141701
1.64135
-0.100591
1.32365
-0.0594529
1.01045
-0.0252185
0.673863
-0.00524201
0.347905
-7.98173e-05
0.117942
0.0108003
0.0017398
0.307634
-0.0205406
0.750199
-0.0483189
1.07681
-0.0768303
1.3423
-0.105823
1.59837
-0.134937
1.85546
-0.16274
2.13551
-0.186179
2.45353
-0.201384
2.80898
-0.202604
3.20436
-0.185623
3.0515
-0.155867
2.44296
-0.122046
1.97609
-0.0844828
1.60379
-0.0445593
1.28373
-0.00965786
0.975544
0.0108903
0.653315
0.0124922
0.346304
0.00472227
0.125712
0.0155226
0.00227271
0.305361
-0.00894258
0.761414
-0.0291343
1.097
-0.0526842
1.36585
-0.0768259
1.62252
-0.101359
1.87999
-0.125193
2.15934
-0.145209
2.47355
-0.157343
2.82111
-0.155481
3.2025
-0.136737
3.03276
-0.109865
2.41609
-0.0769069
1.94314
-0.0409332
1.56781
-0.0101794
1.25297
0.0117882
0.953576
0.0212156
0.643887
0.0169757
0.350543
0.00595215
0.136736
0.0214747
0.00467539
0.300686
-0.00324209
0.769331
-0.0201837
1.11394
-0.0394806
1.38515
-0.0597412
1.64278
-0.0808656
1.90112
-0.10168
2.18015
-0.119483
2.49135
-0.130609
2.83224
-0.129353
3.20124
-0.112701
3.01611
-0.086574
2.38997
-0.0571312
1.91369
-0.0282619
1.53895
-0.00114074
1.22585
0.0179076
0.934528
0.0235844
0.638211
0.0169175
0.35721
0.00564553
0.148008
0.0271203
0.00564045
0.295046
0.000331164
0.774641
-0.0147681
1.12904
-0.032348
1.40273
-0.0503837
1.66081
-0.0690105
1.91974
-0.0874405
2.19858
-0.103281
2.50719
-0.112575
2.84153
-0.11058
3.19925
-0.0950861
3.00061
-0.0729066
2.36779
-0.0470432
1.88783
-0.0201973
1.5121
0.00155763
1.2041
0.0161724
0.919913
0.0205567
0.633826
0.0135765
0.364191
0.00427793
0.157306
0.0313982
0.00385774
0.291188
1.3364e-05
0.778485
-0.012765
1.14182
-0.0286163
1.41858
-0.0451886
1.67739
-0.0623683
1.93692
-0.0795694
2.21579
-0.0947033
2.52233
-0.104744
2.85157
-0.104213
3.19872
-0.0895888
2.98599
-0.0676407
2.34584
-0.0445551
1.86474
-0.0235568
1.4911
-0.00298071
1.18352
0.0105809
0.906351
0.0139286
0.630479
0.00951703
0.368602
0.00295458
0.163869
0.0343528
0.00251723
0.288671
-0.000839494
0.781842
-0.0124849
1.15346
-0.0272873
1.43338
-0.0429636
1.69306
-0.0591144
1.95307
-0.0753391
2.23201
-0.0896993
2.53669
-0.0985453
2.86042
-0.0963494
3.19652
-0.0838358
2.97347
-0.0659955
2.328
-0.0458713
1.84462
-0.0249983
1.47023
-0.00878169
1.1673
0.00236437
0.895205
0.00653195
0.626311
0.00395148
0.371183
0.00145255
0.166368
0.0358053
-0.000103952
0.288775
-0.00362913
0.785367
-0.0139823
1.16382
-0.0271762
1.44657
-0.0420707
1.70796
-0.0577581
1.96876
-0.073746
2.248
-0.0885089
2.55145
-0.0993394
2.87125
-0.102467
3.19965
-0.0918405
2.96285
-0.0731085
2.30927
-0.052075
1.82359
-0.034485
1.45264
-0.0192454
1.15207
-0.00882348
0.884783
-0.00386664
0.621354
-0.00207542
0.369391
-0.000561469
0.164854
0.0352438
-0.000702841
0.289477
-0.0057739
0.790438
-0.0156025
1.17365
-0.0280735
1.45904
-0.042393
1.72228
-0.0576332
1.984
-0.073426
2.26379
-0.0881945
2.56622
-0.0984849
2.88154
-0.0993606
3.20053
-0.0886093
2.9521
-0.0737835
2.29444
-0.0586627
1.80847
-0.0413571
1.43533
-0.0275572
1.13827
-0.0164117
0.873638
-0.00897602
0.613918
-0.00546093
0.365876
-0.00159416
0.160987
0.0336497
-0.00263112
0.292109
-0.00791294
0.79572
-0.0171676
1.1829
-0.0289928
1.47087
-0.0427869
1.73607
-0.0577847
1.999
-0.0735857
2.27959
-0.0888302
2.58146
-0.101458
2.89417
-0.107549
3.20662
-0.100821
2.94537
-0.0841333
2.27775
-0.0645958
1.78893
-0.0501474
1.42088
-0.0351904
1.12331
-0.0238417
0.862289
-0.015512
0.605589
-0.00753595
0.3579
-0.00223653
0.155687
0.0314132
-0.0039152
0.296024
-0.0095667
0.801371
-0.0187399
1.19207
-0.0302356
1.48237
-0.0435133
1.74935
-0.0581619
2.01365
-0.0740933
2.29552
-0.090094
2.59746
-0.103321
2.9074
-0.108399
3.2117
-0.102617
2.93958
-0.0908929
2.26603
-0.0757616
1.7738
-0.0570991
1.40222
-0.0426283
1.10884
-0.0295181
0.849179
-0.0185225
0.594593
-0.00988765
0.349266
-0.00285921
0.148659
0.028554
-0.00439538
0.300419
-0.0107104
0.807686
-0.0197846
1.20115
-0.0309111
1.49349
-0.0438694
1.76231
-0.0584163
2.02819
-0.074507
2.31161
-0.0909434
2.6139
-0.105639
2.92209
-0.116359
3.22242
-0.115298
2.93852
-0.101051
2.25178
-0.0811097
1.75386
-0.0643984
1.38551
-0.0480312
1.09247
-0.0348109
0.835959
-0.0230133
0.582795
-0.0106581
0.33691
-0.00294356
0.140944
0.0256104
-0.0044998
0.304919
-0.0114489
0.814635
-0.0206617
1.21036
-0.0316312
1.50446
-0.0442707
1.77495
-0.058518
2.04244
-0.0745774
2.32767
-0.0916236
2.63094
-0.107887
2.93836
-0.119031
3.23356
-0.117516
2.93701
-0.10768
2.24195
-0.0924509
1.73863
-0.0710938
1.36415
-0.0537557
1.07513
-0.0376517
0.819855
-0.0232227
0.568366
-0.0113419
0.32503
-0.00284138
0.132444
0.022769
-0.00455283
0.309472
-0.0118562
0.821939
-0.0209461
1.21945
-0.0316559
1.51517
-0.0440891
1.78738
-0.0582258
2.05658
-0.0743634
2.34381
-0.0919272
2.64851
-0.109488
2.95592
-0.124141
3.24821
-0.129081
2.94195
-0.118815
2.23168
-0.0986791
1.71849
-0.0788518
1.34433
-0.0572463
1.05353
-0.0400582
0.802667
-0.0254498
0.553758
-0.0107832
0.310363
-0.00240416
0.124065
0.0203648
-0.00461522
0.314087
-0.0120977
0.829421
-0.0211287
1.22848
-0.0316788
1.52572
-0.0438374
1.79954
-0.057695
2.07043
-0.073798
2.35991
-0.0917893
2.6665
-0.110532
2.97466
-0.126942
3.26462
-0.132379
2.94738
-0.125562
2.22486
-0.11104
1.70397
-0.0863785
1.31966
-0.0620111
1.02916
-0.0385503
0.779206
-0.0199437
0.535151
-0.00849811
0.298917
-0.00154713
0.117114
0.0188177
-0.00464563
0.318733
-0.0120952
0.836871
-0.0208343
1.23722
-0.0310783
1.53597
-0.0430169
1.81148
-0.0567615
2.08418
-0.0728592
2.37601
-0.0911281
2.68477
-0.110747
2.99428
-0.129067
3.28294
-0.140066
2.95838
-0.136458
2.22125
-0.118158
1.68567
-0.0945647
1.29607
-0.0641521
0.998747
-0.0371689
0.752223
-0.0157194
0.513702
-0.00348797
0.286686
-0.0020997
0.115726
0.016718
-0.00461085
0.323343
-0.011983
0.844243
-0.0205395
1.24578
-0.0305382
1.54596
-0.042149
1.82309
-0.0555788
2.09761
-0.0715222
2.39196
-0.0899491
2.7032
-0.110453
3.01478
-0.131287
3.30378
-0.14394
2.97104
-0.143474
2.22079
-0.131676
1.67387
-0.104457
1.26885
-0.0698131
0.964103
-0.0285992
0.711009
0.00926589
0.475837
0.0275591
0.268393
0.0227777
0.120507
0.0394957
-0.00448525
0.327829
-0.011673
0.851431
-0.0198815
1.25398
-0.0294986
1.55558
-0.0407956
1.83438
-0.0540164
2.11083
-0.0698218
2.40776
-0.0883854
2.72176
-0.109528
3.03592
-0.131258
3.32551
-0.146728
2.98651
-0.152037
2.2261
-0.139788
1.66162
-0.115367
1.24443
-0.0740049
0.92274
-0.0274257
0.66443
0.0232679
0.425143
0.0395405
0.25212
0.0172416
0.142806
0.0567373
-0.00428907
0.332118
-0.0112966
0.858438
-0.0192692
1.26196
-0.028564
1.56488
-0.0394959
1.84532
-0.0523325
2.12367
-0.0678774
2.42331
-0.0863755
2.74026
-0.107888
3.05744
-0.13209
3.34971
-0.151331
3.00575
-0.158302
2.23307
-0.154561
1.65788
-0.130774
1.22065
-0.0896676
0.881634
-0.019389
0.594151
0.083797
0.321957
0.175535
0.160382
0.176833
0.141508
0.23357
-0.00413073
0.336248
-0.0110025
0.86531
-0.0188323
1.26979
-0.0280622
1.57411
-0.0391812
1.85643
-0.0525167
2.137
-0.0689614
2.43975
-0.0890516
2.76035
-0.113395
3.08178
-0.141411
3.37773
-0.164516
3.02885
-0.179688
2.24824
-0.178595
1.65679
-0.161193
1.20324
-0.117721
0.838162
-0.0688366
0.545266
-0.0991832
0.352304
-0.361923
0.423122
-0.932952
0.712538
0.896419
-1.5958
-0.00392953
0.340178
-0.01061
0.87199
-0.0182911
1.27747
-0.027395
1.58321
-0.0383744
1.86741
-0.0517364
2.15036
-0.0685215
2.45654
-0.0894299
2.78126
-0.115363
3.10771
-0.147127
3.40949
-0.178164
3.05989
-0.197889
2.26797
-0.213326
1.67223
-0.210476
1.20039
-0.197772
0.825458
-0.279057
0.626551
-0.690706
0.763953
-1.4226
1.15502
-2.03453
1.32446
1.21881
-2.35692
-0.00371397
0.343892
-0.010104
0.87838
-0.017479
1.28484
-0.0263259
1.59206
-0.0371802
1.87827
-0.0506443
2.16383
-0.0677883
2.47368
-0.0895722
2.80304
-0.117539
3.13568
-0.152963
3.44491
-0.187339
3.09427
-0.217922
2.29855
-0.237707
1.69201
-0.241845
1.20453
-0.32941
0.913023
-0.749941
1.04708
-1.5219
1.53591
-2.09838
1.73149
-2.3407
1.56679
1.33435
-2.45624
-0.00349882
0.347391
-0.00955781
0.884439
-0.0167015
1.29199
-0.0253647
1.60072
-0.0360174
1.88892
-0.0494347
2.17725
-0.0667965
2.49104
-0.0892942
2.82554
-0.11868
3.16506
-0.157197
3.48343
-0.200458
3.13753
-0.236009
2.3341
-0.273569
1.72957
-0.362368
1.29333
-0.695648
1.2463
-1.42201
1.77344
-2.01757
2.13148
-2.25974
1.97367
-2.37444
1.68149
1.40009
-2.44019
-0.00323028
0.350621
-0.00889399
0.890103
-0.0156502
1.29874
-0.0239817
1.60905
-0.0345028
1.89944
-0.0479281
2.19067
-0.0655177
2.50863
-0.0886908
2.84871
-0.119841
3.19621
-0.162678
3.52627
-0.210659
3.18551
-0.260054
2.38349
-0.311423
1.78094
-0.490014
1.47192
-1.0825
1.83879
-1.7734
2.46434
-2.10179
2.45986
-2.25279
2.12467
-2.33599
1.7647
1.466
-2.4019
-0.00313459
0.353756
-0.00869215
0.895661
-0.0154745
1.30553
-0.0239027
1.61748
-0.0346423
1.91018
-0.0482842
2.20431
-0.0663118
2.52666
-0.0903535
2.87275
-0.123004
3.22886
-0.168375
3.57164
-0.224777
3.24191
-0.27729
2.43601
-0.371141
1.87479
-0.751141
1.85192
-1.47746
2.56511
-1.95878
2.94567
-2.1606
2.66168
-2.26791
2.23198
-2.34518
1.84196
1.53034
-2.40952
-0.00320433
0.35696
-0.00899927
0.901456
-0.0160708
1.3126
-0.024859
1.62627
-0.036119
1.92144
-0.0504444
2.21864
-0.0693544
2.54557
-0.0945753
2.89797
-0.129255
3.26354
-0.179518
3.6219
-0.238859
3.30125
-0.307442
2.50459
-0.497888
2.06524
-1.03839
2.39242
-1.66685
3.19356
-1.94955
3.22837
-2.09828
2.81041
-2.21338
2.34709
-2.30745
1.93603
1.59297
-2.37007
-0.00321458
0.360175
-0.00928619
0.907527
-0.016849
1.32016
-0.0262069
1.63563
-0.0379642
1.9332
-0.0528837
2.23356
-0.072583
2.56527
-0.0990336
2.92442
-0.13546
3.29997
-0.187338
3.67378
-0.252852
3.36676
-0.344057
2.5958
-0.62068
2.34186
-1.25063
3.02238
-1.74695
3.68988
-1.95658
3.43799
-2.09914
2.95297
-2.22465
2.4726
-2.33734
2.04872
1.65245
-2.39683
-0.003175
0.36335
-0.00951643
0.913869
-0.0174347
1.32808
-0.0272064
1.6454
-0.0395345
1.94553
-0.0552085
2.24923
-0.075859
2.58592
-0.10348
2.95205
-0.14173
3.33822
-0.198189
3.73024
-0.268965
3.43754
-0.394208
2.72104
-0.770446
2.7181
-1.39785
3.64978
-1.75896
4.051
-1.93463
3.61366
-2.03928
3.05761
-2.13066
2.56398
-2.20043
2.11849
1.64615
-2.19413
-0.00305286
0.366402
-0.00960668
0.920423
-0.0180998
1.33657
-0.0285532
1.65585
-0.0414635
1.95844
-0.0577538
2.26552
-0.0791891
2.60735
-0.10806
2.98092
-0.148081
3.37824
-0.204727
3.78688
-0.284391
3.5172
-0.453825
2.89047
-0.896149
3.16042
-1.45183
4.20546
-1.71904
4.3182
-1.87578
3.7704
-1.97178
3.15362
-1.97623
2.56843
-1.91188
2.05414
1.61838
-1.88412
-0.00275991
0.369162
-0.00963482
0.927297
-0.0184177
1.34535
-0.0291703
1.6666
-0.0425356
1.9718
-0.0593378
2.28232
-0.0812509
2.62927
-0.110362
3.01003
-0.150547
3.41843
-0.208259
3.8446
-0.295867
3.60481
-0.496292
3.0909
-0.972402
3.63653
-1.41938
4.65244
-1.59164
4.49046
-1.66159
3.84036
-1.66869
3.16072
-1.52393
2.42367
-1.02618
1.55639
0.592202
-0.00233807
0.3715
-0.00927547
0.934235
-0.0186895
1.35477
-0.0303535
1.67827
-0.0446962
1.98614
-0.0626527
2.30028
-0.0862233
2.65284
-0.117973
3.04178
-0.162145
3.4626
-0.224211
3.90666
-0.326104
3.70671
-0.577066
3.34186
-1.1064
4.16587
-1.47255
5.01859
-1.57508
4.59299
-1.57554
3.84082
-1.47599
3.06116
-1.23871
2.1864
-0.642268
0.95994
-0.0500656
-0.0018976
0.373398
-0.00882106
0.941158
-0.0184521
1.3644
-0.030569
1.69038
-0.0458052
2.00138
-0.0651522
2.31963
-0.0906193
2.6783
-0.124796
3.07595
-0.172698
3.5105
-0.242969
3.97693
-0.365736
3.82947
-0.669418
3.64554
-1.21946
4.71591
-1.49119
5.29032
-1.55425
4.65605
-1.5355
3.82207
-1.33602
2.86169
-0.795352
1.64573
-0.114718
0.279306
-0.164783
-0.00116088
0.374559
-0.00760609
0.947604
-0.017734
1.37453
-0.0308165
1.70347
-0.0469563
2.01752
-0.0673468
2.34002
-0.0944004
2.70536
-0.131286
3.11284
-0.182925
3.56214
-0.258633
4.05264
-0.402408
3.97325
-0.763622
4.00676
-1.29967
5.25196
-1.4842
5.47485
-1.51477
4.68661
-1.43231
3.73962
-1.11355
2.54293
-0.325355
0.857532
0.0289445
-0.0749931
-0.135839
-0.000366634
0.374926
-0.00610855
0.953345
-0.0162182
1.38464
-0.0295664
1.71681
-0.0463783
2.03433
-0.0680776
2.36172
-0.0968902
2.73417
-0.135784
3.15173
-0.190065
3.61642
-0.275511
4.13809
-0.447001
4.14474
-0.865266
4.42502
-1.3397
5.72639
-1.46219
5.59734
-1.46991
4.69434
-1.26035
3.53005
-0.708453
1.99103
-0.0670487
0.216128
0.0330348
-0.175077
-0.102804
0.00148521
0.37344
-0.00288687
0.957718
-0.0134316
1.39518
-0.0278493
1.73123
-0.0452852
2.05177
-0.0677686
2.3842
-0.0977941
2.7642
-0.138824
3.19276
-0.195674
3.67327
-0.288416
4.23083
-0.482068
4.33839
-0.948712
4.89166
-1.33599
6.11368
-1.40754
5.66889
-1.37
4.6568
-1.08354
3.2436
-0.345713
1.2532
-0.00586829
-0.123717
0.010969
-0.191914
-0.0918348
0.00331318
0.370127
0.000759405
0.960271
-0.00972375
1.40566
-0.0238524
1.74536
-0.0414461
2.06936
-0.0649765
2.40773
-0.0962392
2.79546
-0.13835
3.23487
-0.197356
3.73228
-0.297944
4.33142
-0.516217
4.55666
-1.00907
5.38452
-1.2946
6.39921
-1.33456
5.70884
-1.21579
4.53802
-0.805794
2.8336
-0.091858
0.539267
0.0450372
-0.260612
0.0258945
-0.172771
-0.0659403
0.00569204
0.364435
0.00475579
0.961208
-0.00431152
1.41473
-0.0183551
1.7594
-0.0361786
2.08719
-0.0599165
2.43147
-0.0915023
2.82704
-0.134793
3.27816
-0.195371
3.79285
-0.30203
4.43808
-0.540826
4.79546
-1.01997
5.86366
-1.22107
6.60031
-1.24163
5.7294
-1.04219
4.33858
-0.484849
2.27627
0.00206454
0.0523532
0.0152246
-0.273772
0.0166936
-0.17424
-0.0492467
0.00843455
0.356001
0.0101518
0.95949
0.00333649
1.42155
-0.00921987
1.77196
-0.0269693
2.10494
-0.0508663
2.45537
-0.082553
2.85873
-0.125166
3.32078
-0.186235
3.85392
-0.2972
4.54904
-0.552658
5.05092
-0.99691
6.30791
-1.13041
6.73382
-1.11332
5.71231
-0.874122
4.09938
-0.300703
1.70285
-0.0668445
-0.181505
-0.0393901
-0.301227
-0.0110596
-0.202571
-0.0603064
0.0126251
0.343375
0.0187181
0.953397
0.0142039
1.42606
0.00301081
1.78315
-0.0150501
2.123
-0.0377431
2.47806
-0.0678282
2.88882
-0.109676
3.36263
-0.169492
3.91374
-0.282074
4.66163
-0.53754
5.30638
-0.916048
6.68642
-0.994652
6.81242
-0.955363
5.67302
-0.702624
3.84664
-0.150787
1.15101
-0.0772393
-0.255053
-0.0462212
-0.332245
-0.0170123
-0.231779
-0.0773187
0.0178056
0.32557
0.0292743
0.941929
0.0281241
1.42721
0.0185716
1.79271
0.00280582
2.13876
-0.0176939
2.49856
-0.0461742
2.9173
-0.0849646
3.40142
-0.141365
3.97014
-0.250511
4.77077
-0.487218
5.54309
-0.793472
6.99267
-0.853354
6.8723
-0.770821
5.59049
-0.466392
3.54221
-0.0177246
0.702343
0.00630596
-0.279084
0.00281646
-0.328755
0.0048644
-0.233827
-0.0724543
0.0246304
0.300939
0.043755
0.922804
0.0473954
1.42357
0.0402527
1.79985
0.0277869
2.15123
0.00953274
2.51681
-0.0155754
2.9424
-0.0499578
3.4358
-0.100535
4.02072
-0.198331
4.86857
-0.396315
5.74107
-0.606126
7.20248
-0.658394
6.92457
-0.57437
5.50646
-0.229037
3.19688
0.0921274
0.381179
0.0557589
-0.242715
0.0491847
-0.322181
0.0485461
-0.233189
-0.0239081
0.0327602
0.268179
0.0614942
0.89407
0.0719553
1.41311
0.0700429
1.80176
0.0616052
2.15967
0.0465499
2.53187
0.0258532
2.9631
-0.00263502
3.46429
-0.0446828
4.06276
-0.118271
4.94216
-0.268368
5.89117
-0.396541
7.33065
-0.458487
6.98652
-0.470267
5.51824
-0.31634
3.04295
-0.264506
0.329345
-0.242645
-0.264577
-0.12213
-0.442695
0.00237649
-0.357695
-0.0215316
0.0421387
0.22604
0.083832
0.852377
0.103664
1.39328
0.107362
1.79806
0.103507
2.16352
0.0934843
2.54189
0.0800852
2.9765
0.0605714
3.4838
0.0310614
4.09227
-0.00180932
4.97503
-0.0709832
5.96034
-0.138511
7.39818
-0.213429
7.06144
-0.339089
5.6439
-0.458641
3.1625
-0.702158
0.572863
-0.698106
-0.26863
-0.497232
-0.643569
-0.235632
-0.619295
-0.257164
0.0518294
0.174211
0.110212
0.793995
0.143388
1.3601
0.155709
1.78574
0.158682
2.16055
0.154043
2.54653
0.148523
2.98202
0.141017
3.49131
0.133374
4.09992
0.125619
4.98278
0.172024
5.91394
0.216809
7.3534
0.191987
7.08626
0.0866487
5.74924
-0.219571
3.46872
-0.674689
1.02798
-0.800391
-0.142928
-0.640335
-0.803625
-0.362546
-0.897083
-0.61971
0.0559201
0.118291
0.137814
0.712101
0.189628
1.30829
0.213495
1.76188
0.224716
2.14933
0.228325
2.54292
0.232576
2.97777
0.239126
3.48476
0.257329
4.08171
0.293227
4.94688
0.461728
5.74544
0.709637
7.10549
0.913132
6.88276
1.08619
5.57618
0.825929
3.72899
0.248519
1.60539
-0.173955
0.279546
-0.359523
-0.618057
-0.257915
-0.998691
-0.877626
0.0503083
0.0679826
0.164705
0.597704
0.245141
1.22785
0.285128
1.72189
0.306711
2.12774
0.319022
2.53061
0.332981
2.96381
0.354978
3.46276
0.399723
4.03697
0.498454
4.84815
0.799805
5.44409
1.37424
6.53105
1.78203
6.47498
2.1061
5.2521
2.01563
3.81946
1.46921
2.15182
0.960594
0.788161
0.415296
-0.0727592
0.132337
-0.715733
-0.745289
0.0374222
0.0305604
0.191202
0.443925
0.302902
1.11615
0.366895
1.6579
0.401356
2.09328
0.426169
2.5058
0.448679
2.9413
0.484144
3.4273
0.554109
3.967
0.701916
4.70035
1.0988
5.0472
1.82477
5.80508
2.23521
6.06454
2.46864
5.01867
2.44082
3.84728
1.99849
2.59415
1.46198
1.32466
0.966869
0.422353
0.410859
-0.159722
-0.33443
0.0300063
0.000554063
0.21155
0.262381
0.373518
0.954183
0.464438
1.56698
0.511784
2.04594
0.548119
2.46946
0.576887
2.91253
0.622932
3.38125
0.699834
3.8901
0.851038
4.54914
1.18427
4.71397
1.90958
5.07977
2.29328
5.68084
2.48455
4.8274
2.46605
3.86578
2.15802
2.90218
1.60232
1.88037
1.00766
1.01701
0.41457
0.43337
0.0801401
0.0279923
-0.0274382
0.189697
0.100676
0.429104
0.714776
0.569761
1.42632
0.637353
1.97834
0.682409
2.4244
0.716767
2.87818
0.755824
3.34219
0.810278
3.83565
0.923726
4.43569
1.11571
4.52199
1.66133
4.53415
2.05946
5.28272
2.12539
4.76146
2.05251
3.93866
1.8118
3.1429
1.36026
2.3319
0.854965
1.52231
0.367395
0.92094
0.447535
0.0237853
-0.0512235
0.12337
0.00109158
0.387522
0.450624
0.562163
1.25168
0.640217
1.90029
0.667692
2.39693
0.678918
2.86695
0.669693
3.35142
0.659564
3.84577
0.664418
4.43084
0.708551
4.47785
0.912945
4.32975
1.14552
5.05014
1.14223
4.76476
1.06278
4.0181
0.923724
3.28196
0.701925
2.5537
0.428217
1.79601
0.170531
1.17863
0.618066
0.0166197
-0.0678433
0.0676217
-0.0499104
0.236823
0.281423
0.389237
1.09926
0.470968
1.81856
0.502866
2.36503
0.521537
2.84828
0.521916
3.35104
0.520626
3.84706
0.516778
4.43469
0.520764
4.47387
0.639365
4.21115
0.811701
4.8778
0.817875
4.75858
0.742018
4.09396
0.630357
3.39362
0.475436
2.70862
0.281891
1.98956
0.102371
1.35815
0.720437
0.0235481
-0.0913914
0.0539081
-0.0802703
0.114934
0.220397
0.220919
0.993278
0.295082
1.7444
0.337957
2.32216
0.365813
2.82042
0.383184
3.33367
0.391512
3.83874
0.388203
4.438
0.37559
4.48648
0.433401
4.15334
0.555212
4.75599
0.561533
4.75226
0.498083
4.15741
0.410778
3.48093
0.299258
2.82014
0.163589
2.12523
0.0442274
1.47751
0.764665
0.0192203
-0.110612
0.0244589
-0.0855089
0.0124921
0.232364
0.0602358
0.945534
0.122107
1.68253
0.17696
2.2673
0.219992
2.77739
0.251489
3.30217
0.270055
3.82017
0.276486
4.43157
0.264054
4.49891
0.289421
4.12797
0.366781
4.67863
0.365657
4.75339
0.315105
4.20796
0.243281
3.55275
0.159939
2.90348
0.0682476
2.21692
-0.00454377
1.5503
0.760121
-0.000754916
-0.109857
-0.0310925
-0.0551713
-0.0770092
0.278281
-0.0786756
0.947201
-0.0304353
1.63429
0.0303207
2.20655
0.0872531
2.72046
0.133318
3.25611
0.167055