/*--------------------------------*- C++ -*----------------------------------*\
| =========                 |                                                 |
| \\      /  F ield         | OpenFOAM: The Open Source CFD Toolbox           |
|  \\    /   O peration     | Version:  v2012                                 |
|   \\  /    A nd           | Website:  www.openfoam.com                      |
|    \\/     M anipulation  |                                                 |
\*---------------------------------------------------------------------------*/
FoamFile
{
    version     2.0;
    format      ascii;
    class       volVectorField;
    location    "36";
    object      U;
}
// * * * * * * * * * * * * * * * * * * * * * * * * * * * * * * * * * * * * * //

dimensions      [0 1 -1 0 0 0 0];


internalField   nonuniform List<vector> 
2200
(
(0.878824 -0.0304153 0)
(1.00577 -0.0512861 0)
(1.00325 -0.0354153 0)
(1.00021 -0.0244728 0)
(0.999837 -0.0167239 0)
(1.00003 -0.0108093 0)
(1.00001 -0.00688135 0)
(1.00001 -0.00421007 0)
(0.999992 -0.00224294 0)
(1.00017 -0.000730334 0)
(1.00004 0.000936928 0)
(0.999939 0.00242296 0)
(0.999964 0.00439107 0)
(1.00008 0.00704294 0)
(1.00008 0.0109107 0)
(0.999797 0.0167073 0)
(1.00016 0.0244552 0)
(1.00343 0.0350899 0)
(1.0059 0.051351 0)
(0.878953 0.0303486 0)
(0.712007 -0.0327632 0)
(0.996624 -0.0630205 0)
(1.0333 -0.0561507 0)
(1.02486 -0.046375 0)
(1.01583 -0.0360493 0)
(1.00967 -0.0263486 0)
(1.00599 -0.0181487 0)
(1.00378 -0.0114831 0)
(1.00255 -0.00607757 0)
(1.002 -0.00158792 0)
(1.002 0.00256988 0)
(1.00253 0.00706751 0)
(1.00376 0.0123432 0)
(1.00584 0.0188859 0)
(1.00945 0.0269321 0)
(1.01571 0.0367183 0)
(1.02482 0.0470988 0)
(1.03309 0.0574031 0)
(0.996634 0.063145 0)
(0.711814 0.0329587 0)
(0.535488 -0.0239012 0)
(0.969865 -0.0569724 0)
(1.05645 -0.0547639 0)
(1.0523 -0.0488732 0)
(1.03623 -0.0405104 0)
(1.02436 -0.0322609 0)
(1.01586 -0.024087 0)
(1.01037 -0.0162809 0)
(1.00721 -0.00907412 0)
(1.00573 -0.00245399 0)
(1.0057 0.00390254 0)
(1.00711 0.0104555 0)
(1.01016 0.0175276 0)
(1.01544 0.0251482 0)
(1.02404 0.0332486 0)
(1.03599 0.041273 0)
(1.05201 0.0493865 0)
(1.05636 0.053807 0)
(0.969245 0.0575548 0)
(0.534468 0.0239263 0)
(0.392108 -0.0136699 0)
(0.911592 -0.0464244 0)
(1.05741 -0.0470534 0)
(1.06946 -0.0443578 0)
(1.05494 -0.0382925 0)
(1.03932 -0.0316327 0)
(1.02737 -0.0247894 0)
(1.01893 -0.0175541 0)
(1.01356 -0.0100873 0)
(1.01087 -0.00256544 0)
(1.01072 0.00485722 0)
(1.01322 0.0121693 0)
(1.01842 0.0192877 0)
(1.02687 0.0262717 0)
(1.03867 0.0328122 0)
(1.05423 0.0392504 0)
(1.06865 0.0453665 0)
(1.05587 0.0480113 0)
(0.910241 0.0468382 0)
(0.390308 0.0137419 0)
(0.307519 -0.00449855 0)
(0.846672 -0.0323713 0)
(1.04941 -0.0398961 0)
(1.07943 -0.0382096 0)
(1.06814 -0.0336359 0)
(1.05168 -0.0281496 0)
(1.03831 -0.0228097 0)
(1.02813 -0.0167957 0)
(1.02114 -0.00994549 0)
(1.01741 -0.0024065 0)
(1.01721 0.00536212 0)
(1.02062 0.0127337 0)
(1.02738 0.0193921 0)
(1.03732 0.0251495 0)
(1.05055 0.0301119 0)
(1.06687 0.0353975 0)
(1.07779 0.0397059 0)
(1.04737 0.0413651 0)
(0.843513 0.032837 0)
(0.304461 0.00468053 0)
(0.263994 9.16392e-05 0)
(0.788516 -0.0201262 0)
(1.03286 -0.0316077 0)
(1.08313 -0.0322704 0)
(1.07694 -0.0290291 0)
(1.06055 -0.0241991 0)
(1.04711 -0.0197383 0)
(1.03627 -0.0146197 0)
(1.02841 -0.00861498 0)
(1.02391 -0.00161161 0)
(1.02363 0.00573203 0)
(1.02762 0.0124499 0)
(1.0351 0.0180606 0)
(1.04552 0.0226656 0)
(1.05874 0.0267712 0)
(1.07508 0.031122 0)
(1.08092 0.0338695 0)
(1.02997 0.033028 0)
(0.783766 0.0206309 0)
(0.259832 8.1356e-05 0)
(0.239984 0.00104618 0)
(0.737897 -0.0123533 0)
(1.01339 -0.0251012 0)
(1.08383 -0.0269213 0)
(1.08267 -0.0246236 0)
(1.06746 -0.0204871 0)
(1.05404 -0.0166012 0)
(1.04327 -0.0122147 0)
(1.03517 -0.00701664 0)
(1.0303 -0.000848075 0)
(1.02987 0.00571936 0)
(1.034 0.0115915 0)
(1.04142 0.0163124 0)
(1.05199 0.0202667 0)
(1.06514 0.023704 0)
(1.07985 0.0273144 0)
(1.08033 0.0291278 0)
(1.00833 0.0267342 0)
(0.730481 0.012972 0)
(0.234428 -0.000878593 0)
(0.225547 0.000966456 0)
(0.694831 -0.00803322 0)
(0.992456 -0.0207475 0)
(1.0818 -0.0232022 0)
(1.08655 -0.0213618 0)
(1.07304 -0.0178202 0)
(1.05957 -0.0140261 0)
(1.04904 -0.0098686 0)
(1.04118 -0.00512571 0)
(1.03632 0.000359448 0)
(1.03576 0.00622123 0)
(1.03957 0.011325 0)
(1.04667 0.0154133 0)
(1.05646 0.0189152 0)
(1.06957 0.0218722 0)
(1.0826 0.0248079 0)
(1.0769 0.0259087 0)
(0.985183 0.0227798 0)
(0.68468 0.00887467 0)
(0.218516 -0.000771032 0)
(0.215977 0.00062008 0)
(0.659382 -0.00568276 0)
(0.971819 -0.0176685 0)
(1.07888 -0.0203144 0)
(1.08965 -0.0188881 0)
(1.07764 -0.0158638 0)
(1.06417 -0.0123425 0)
(1.05377 -0.00837038 0)
(1.04609 -0.00382331 0)
(1.04139 0.00123498 0)
(1.0406 0.00656355 0)
(1.04389 0.0111069 0)
(1.05058 0.0149642 0)
(1.06028 0.0180677 0)
(1.07341 0.0211557 0)
(1.08449 0.0233744 0)
(1.07223 0.0240476 0)
(0.961571 0.0202351 0)
(0.645392 0.00674249 0)
(0.206879 -0.000395122 0)
(0.208711 0.000278625 0)
(0.630687 -0.00423016 0)
(0.952818 -0.01508 0)
(1.0755 -0.0181386 0)
(1.09257 -0.0169555 0)
(1.08211 -0.0142389 0)
(1.06851 -0.0108 0)
(1.05789 -0.00688687 0)
(1.05012 -0.00235704 0)
(1.04543 0.00256228 0)
(1.04439 0.00752114 0)
(1.04726 0.0118325 0)
(1.05359 0.0153436 0)
(1.06327 0.0183394 0)
(1.07609 0.0205653 0)
(1.08536 0.0223868 0)
(1.06579 0.0223763 0)
(0.938207 0.0180733 0)
(0.612238 0.00548424 0)
(0.197266 -1.6662e-05 0)
(0.202923 8.44441e-05 0)
(0.607564 -0.00303879 0)
(0.934708 -0.0124345 0)
(1.07211 -0.0155238 0)
(1.0954 -0.0146384 0)
(1.08635 -0.0121739 0)
(1.07275 -0.00897104 0)
(1.062 -0.00520263 0)
(1.054 -0.000843852 0)
(1.04892 0.00385911 0)
(1.04752 0.00836175 0)
(1.05022 0.0124222 0)
(1.05652 0.0156476 0)
(1.06596 0.018139 0)
(1.07882 0.0202889 0)
(1.08609 0.0214751 0)
(1.05974 0.0211218 0)
(0.91596 0.0161313 0)
(0.583884 0.00463094 0)
(0.188534 0.000243685 0)
(0.198601 4.82129e-05 0)
(0.589894 -0.00203247 0)
(0.919343 -0.00965492 0)
(1.06869 -0.0128804 0)
(1.09815 -0.0120761 0)
(1.0905 -0.00978104 0)
(1.07692 -0.00668134 0)
(1.06604 -0.00311606 0)
(1.05784 0.00105504 0)
(1.0525 0.00551521 0)
(1.05089 0.00966697 0)
(1.05321 0.0131839 0)
(1.05908 0.0160407 0)
(1.06835 0.0181798 0)
(1.08057 0.0197225 0)
(1.08601 0.0205404 0)
(1.05159 0.0195936 0)
(0.893632 0.0142184 0)
(0.559509 0.00397984 0)
(0.180608 0.000381056 0)
(0.195606 2.4464e-05 0)
(0.576604 -0.00122377 0)
(0.90578 -0.00746808 0)
(1.06588 -0.0103173 0)
(1.10108 -0.0093257 0)
(1.09483 -0.00697236 0)
(1.08124 -0.00405724 0)
(1.06994 -0.000728787 0)
(1.0611 0.00306227 0)
(1.05491 0.00726168 0)
(1.05254 0.0113274 0)
(1.05475 0.0145001 0)
(1.06078 0.0165874 0)
(1.07005 0.018067 0)
(1.08215 0.0191303 0)
(1.08558 0.019762 0)
(1.04426 0.0186122 0)
(0.87328 0.0128306 0)
(0.538421 0.00360075 0)
(0.173252 0.000468167 0)
(0.193747 3.21225e-05 0)
(0.566913 -0.000603957 0)
(0.894227 -0.00518195 0)
(1.06348 -0.00781291 0)
(1.10461 -0.00672896 0)
(1.09948 -0.00410337 0)
(1.08569 -0.000805394 0)
(1.07393 0.00246071 0)
(1.06452 0.00604466 0)
(1.05788 0.00989988 0)
(1.05533 0.0135187 0)
(1.05726 0.0158915 0)
(1.06287 0.0173135 0)
(1.07202 0.0182943 0)
(1.08372 0.0192898 0)
(1.08444 0.0195836 0)
(1.03433 0.0178315 0)
(0.851999 0.0117802 0)
(0.519073 0.00345345 0)
(0.166084 0.000553473 0)
(0.19344 -8.53862e-05 0)
(0.561015 0.000296618 0)
(0.886679 -0.00268367 0)
(1.06208 -0.00473629 0)
(1.10796 -0.00355618 0)
(1.10441 -0.000938817 0)
(1.09067 0.00227716 0)
(1.07863 0.00563493 0)
(1.06886 0.00916512 0)
(1.06152 0.0126707 0)
(1.05782 0.0156396 0)
(1.05895 0.0175563 0)
(1.06446 0.0186198 0)
(1.07364 0.0191589 0)
(1.08383 0.019866 0)
(1.08274 0.0193226 0)
(1.02606 0.0172501 0)
(0.833654 0.010928 0)
(0.502416 0.0032897 0)
(0.159236 0.00059025 0)
(0.194439 5.09479e-06 0)
(0.56035 0.00128 0)
(0.880201 -0.000315757 0)
(1.06131 -0.00171088 0)
(1.11195 -0.000369798 0)
(1.10932 0.00226959 0)
(1.09539 0.00559507 0)
(1.08308 0.00906123 0)
(1.0731 0.0127309 0)
(1.06551 0.0162962 0)
(1.06144 0.0189453 0)
(1.06135 0.0203775 0)
(1.06523 0.0208598 0)
(1.07376 0.0210711 0)
(1.08318 0.0205916 0)
(1.07912 0.019566 0)
(1.01363 0.0166785 0)
(0.812731 0.0100197 0)
(0.48593 0.00315063 0)
(0.152321 0.000600393 0)
(0.197553 0.000505312 0)
(0.562014 0.00186215 0)
(0.87871 0.00253767 0)
(1.06188 0.00191818 0)
(1.11517 0.0035989 0)
(1.11367 0.00612836 0)
(1.09971 0.00929294 0)
(1.0868 0.0128956 0)
(1.07603 0.0168341 0)
(1.06722 0.0205069 0)
(1.06155 0.022897 0)
(1.06061 0.0239241 0)
(1.06485 0.0238296 0)
(1.0731 0.022968 0)
(1.08159 0.0216934 0)
(1.07508 0.0200486 0)
(1.00343 0.0165345 0)
(0.795926 0.00960564 0)
(0.472078 0.00317937 0)
(0.145938 0.000607767 0)
(0.20248 0.000692214 0)
(0.567029 0.0029542 0)
(0.880945 0.0051042 0)
(1.06378 0.00561209 0)
(1.11949 0.00795738 0)
(1.1185 0.0107994 0)
(1.10405 0.0142215 0)
(1.09034 0.0181619 0)
(1.07847 0.0220011 0)
(1.06844 0.0255717 0)
(1.06211 0.02758 0)
(1.06031 0.0280631 0)
(1.06292 0.0270704 0)
(1.07043 0.0256625 0)
(1.07807 0.0237119 0)
(1.06779 0.0213236 0)
(0.988305 0.0167421 0)
(0.774775 0.00952607 0)
(0.456173 0.00340725 0)
(0.138764 0.000648156 0)
(0.210734 0.000859188 0)
(0.578962 0.00439802 0)
(0.888066 0.00824782 0)
(1.06841 0.0105131 0)
(1.12404 0.0131944 0)
(1.12382 0.0163313 0)
(1.10932 0.0204242 0)
(1.0951 0.0245656 0)
(1.0821 0.0287783 0)
(1.07032 0.0322634 0)
(1.06194 0.033643 0)
(1.05878 0.0329194 0)
(1.06124 0.031087 0)
(1.06808 0.0286284 0)
(1.07395 0.0258345 0)
(1.06107 0.0223741 0)
(0.976316 0.01734 0)
(0.758959 0.010037 0)
(0.442729 0.00379128 0)
(0.131864 0.000672864 0)
(0.220151 0.00108945 0)
(0.593379 0.00537226 0)
(0.899057 0.0110764 0)
(1.07568 0.0147975 0)
(1.13063 0.0184273 0)
(1.13078 0.0227307 0)
(1.11583 0.0272562 0)
(1.10088 0.0322475 0)
(1.08685 0.0367273 0)
(1.07348 0.0398709 0)
(1.06317 0.0405338 0)
(1.05809 0.0392842 0)
(1.05797 0.0364343 0)
(1.0633 0.0330016 0)
(1.06783 0.0296511 0)
(1.05097 0.0251277 0)
(0.95845 0.019058 0)
(0.736141 0.0111885 0)
(0.424254 0.00440017 0)
(0.123093 0.000731801 0)
(0.233774 0.00148772 0)
(0.615214 0.00713189 0)
(0.916795 0.0148924 0)
(1.08663 0.0204644 0)
(1.1389 0.0251901 0)
(1.13873 0.0299428 0)
(1.12288 0.0357751 0)
(1.10652 0.0412569 0)
(1.09053 0.0463757 0)
(1.07487 0.0498868 0)
(1.06238 0.0503481 0)
(1.05574 0.0474672 0)
(1.05522 0.0433027 0)
(1.0595 0.0386121 0)
(1.06142 0.0339001 0)
(1.04101 0.0284119 0)
(0.943513 0.0216204 0)
(0.718299 0.0131858 0)
(0.407317 0.00522865 0)
(0.114223 0.000808636 0)
(0.250046 0.00204233 0)
(0.640514 0.00876041 0)
(0.938629 0.0186823 0)
(1.10093 0.0262939 0)
(1.14927 0.032387 0)
(1.14835 0.0395762 0)
(1.1307 0.0461727 0)
(1.11231 0.0527823 0)
(1.0939 0.0583068 0)
(1.07555 0.0612881 0)
(1.05992 0.0603794 0)
(1.05069 0.0565153 0)
(1.04772 0.0514329 0)
(1.05079 0.0456564 0)
(1.05209 0.0406121 0)
(1.02751 0.0339411 0)
(0.921314 0.0256024 0)
(0.689374 0.0157021 0)
(0.381733 0.00615703 0)
(0.102224 0.000923511 0)
(0.272779 0.00285662 0)
(0.675065 0.0125244 0)
(0.967235 0.0249856 0)
(1.11979 0.0349511 0)
(1.16312 0.0431233 0)
(1.15992 0.0511657 0)
(1.13996 0.0595345 0)
(1.11879 0.067044 0)
(1.09713 0.0729369 0)
(1.07542 0.075845 0)
(1.05726 0.0743626 0)
(1.04669 0.0692013 0)
(1.04319 0.0621442 0)
(1.0448 0.054551 0)
(1.04222 0.0477918 0)
(1.01282 0.0394951 0)
(0.900145 0.0300049 0)
(0.664465 0.0185034 0)
(0.357733 0.00719374 0)
(0.090206 0.000984203 0)
(0.304069 0.00374554 0)
(0.720473 0.0153747 0)
(1.00495 0.0324001 0)
(1.14435 0.0455179 0)
(1.18042 0.0552975 0)
(1.17436 0.0668353 0)
(1.15075 0.0764658 0)
(1.12628 0.08499 0)
(1.1012 0.090954 0)
(1.07583 0.0929041 0)
(1.0534 0.0892615 0)
(1.03842 0.0817097 0)
(1.03173 0.0735974 0)
(1.03186 0.0650764 0)
(1.02924 0.0572847 0)
(0.994173 0.0475509 0)
(0.870269 0.0354628 0)
(0.624995 0.0216196 0)
(0.322071 0.00801599 0)
(0.0744091 0.00100602 0)
(0.340108 0.00724133 0)
(0.777106 0.0245603 0)
(1.05055 0.0448255 0)
(1.17427 0.0614092 0)
(1.2022 0.0745453 0)
(1.19066 0.0875955 0)
(1.16264 0.0984324 0)
(1.13389 0.107241 0)
(1.10434 0.112736 0)
(1.07453 0.113635 0)
(1.04886 0.108726 0)
(1.03304 0.10034 0)
(1.02605 0.090135 0)
(1.02414 0.0791232 0)
(1.01458 0.0684918 0)
(0.970969 0.0559337 0)
(0.837914 0.041551 0)
(0.588675 0.0250261 0)
(0.289623 0.00922387 0)
(0.059802 0.000929529 0)
(0.421142 0.0109445 0)
(0.861853 0.0353879 0)
(1.11147 0.0651489 0)
(1.21119 0.0863164 0)
(1.22706 0.100189 8.21333e-34)
(1.20866 0.116297 -3.63382e-34)
(1.17459 0.127156 0)
(1.1409 0.135285 0)
(1.10665 0.139244 0)
(1.07244 0.137848 0)
(1.04244 0.129768 0)
(1.02137 0.117723 0)
(1.00957 0.105097 0)
(1.00463 0.0929135 0)
(0.994994 0.0810354 0)
(0.943663 0.0664871 0)
(0.796154 0.04832 0)
(0.534354 0.0288623 0)
(0.240551 0.00931463 0)
(0.0400591 0.000731013 0)
(0.490954 0.0261329 6.49912e-20)
(0.960011 0.0590469 -4.89677e-20)
(1.17661 0.0984553 0)
(1.24855 0.122597 3.65179e-20)
(1.25363 0.138793 -2.95969e-20)
(1.22557 0.155135 3.83393e-34)
(1.18545 0.16427 0)
(1.14643 0.170555 1.96529e-20)
(1.1067 0.172453 -6.40568e-20)
(1.0668 0.168564 1.29667e-20)
(1.0323 0.158278 0)
(1.01007 0.144731 -3.19916e-20)
(0.998899 0.131049 -3.80534e-20)
(0.99183 0.116037 6.64588e-20)
(0.967927 0.0992812 -5.23999e-20)
(0.898688 0.079438 0)
(0.734628 0.0571045 -1.88837e-20)
(0.464103 0.0319776 0)
(0.186645 0.010795 -1.03933e-19)
(0.0221804 0.000956982 1.22685e-19)
(0.52467 0.0538811 -8.33219e-21)
(1.01891 0.102565 1.5695e-19)
(1.22273 0.148346 -1.18564e-20)
(1.28031 0.169902 -9.70291e-20)
(1.27656 0.187036 -6.27823e-20)
(1.2402 0.201312 1.01809e-19)
(1.19449 0.208198 0)
(1.15003 0.212364 0)
(1.10478 0.211924 1.02244e-19)
(1.05988 0.205346 0)
(1.02052 0.191706 1.16581e-19)
(0.9914 0.175261 3.43245e-20)
(0.969773 0.157294 3.57573e-22)
(0.950798 0.139138 -7.26013e-20)
(0.927199 0.122057 0)
(0.855582 0.101877 0)
(0.6856 0.0733988 -3.09135e-19)
(0.421543 0.0432318 7.74126e-19)
(0.169854 0.0145231 -4.59348e-19)
(0.0164063 0.0022093 -5.42161e-19)
(0.531033 0.0765697 -1.07204e-19)
(1.05384 0.159063 3.87876e-20)
(1.25719 0.209527 1.90413e-20)
(1.30539 0.229178 1.7066e-19)
(1.29418 0.243999 1.41759e-20)
(1.25146 0.253725 -2.67202e-19)
(1.20088 0.256982 8.95876e-20)
(1.1511 0.258206 0)
(1.10033 0.254877 -2.16944e-19)
(1.04913 0.24516 1.88519e-19)
(1.00362 0.229299 -3.14393e-19)
(0.970013 0.209942 1.46729e-19)
(0.947742 0.190964 -9.37067e-20)
(0.931874 0.174115 2.11664e-19)
(0.897068 0.154016 0)
(0.818086 0.128134 -7.70056e-20)
(0.654515 0.0949056 0)
(0.410783 0.0547445 4.26744e-19)
(0.170877 0.0230966 -1.01349e-18)
(0.0213779 0.00243034 6.34821e-19)
(0.52256 0.108269 3.51364e-19)
(1.06883 0.215431 -1.49331e-19)
(1.27638 0.274234 -2.96075e-20)
(1.32155 0.293071 0)
(1.30537 0.305485 -1.23714e-19)
(1.25818 0.310273 1.51561e-19)
(1.20341 0.309169 -9.58486e-20)
(1.14888 0.306632 0)
(1.09319 0.299238 1.54317e-19)
(1.03762 0.285545 -1.32804e-19)
(0.988347 0.265458 2.72295e-19)
(0.949514 0.243152 0)
(0.920147 0.223417 -1.99315e-19)
(0.891659 0.202098 1.12698e-19)
(0.860854 0.181166 2.82141e-19)
(0.789912 0.157552 -2.48188e-19)
(0.639846 0.120764 3.96991e-19)
(0.412312 0.074958 -8.78551e-19)
(0.186252 0.0339485 5.54936e-19)
(0.0316523 0.00576022 -6.94423e-19)
(0.510013 0.132499 -1.56154e-19)
(1.07552 0.270259 1.13431e-19)
(1.28639 0.340626 -9.69369e-20)
(1.32971 0.358383 1.76858e-19)
(1.30997 0.368291 -1.57274e-19)
(1.25995 0.36841 4.96143e-20)
(1.20219 0.363201 3.65234e-21)
(1.14381 0.356706 -1.81287e-19)
(1.08416 0.345556 -1.6247e-19)
(1.02351 0.328034 -2.85274e-19)
(0.967491 0.304406 -5.85119e-19)
(0.925014 0.279978 -1.78257e-19)
(0.895004 0.257138 2.44102e-21)
(0.872669 0.237341 -3.83009e-19)
(0.834066 0.216422 -6.33114e-21)
(0.760972 0.186881 3.60234e-19)
(0.619923 0.146389 -1.08765e-19)
(0.411342 0.0949162 -6.33848e-20)
(0.199096 0.0465367 0)
(0.0408868 0.00976526 1.47158e-18)
(0.491705 0.152979 0)
(1.06758 0.319383 -2.28599e-20)
(1.28747 0.403694 0)
(1.33129 0.422231 -1.25755e-20)
(1.30916 0.430681 1.58051e-19)
(1.25727 0.426648 -1.12749e-19)
(1.19721 0.417475 1.05817e-19)
(1.13588 0.406996 2.96197e-19)
(1.07264 0.3914 -8.97973e-20)
(1.00784 0.369056 1.4309e-19)
(0.949223 0.342135 3.14325e-19)
(0.904119 0.314578 3.87507e-19)
(0.868796 0.290792 -2.31692e-19)
(0.834617 0.266465 4.13555e-19)
(0.803714 0.244982 -3.26778e-19)
(0.741711 0.218894 0)
(0.613604 0.174522 -8.2373e-19)
(0.417822 0.117911 1.10893e-18)
(0.212107 0.0608005 8.27373e-20)
(0.0489155 0.0143341 -1.54892e-18)
(0.477653 0.173512 -5.15498e-21)
(1.0594 0.367993 2.37181e-20)
(1.28398 0.464599 2.40256e-19)
(1.32792 0.483723 -1.96887e-19)
(1.30385 0.490908 1.23514e-19)
(1.25073 0.483398 -1.12626e-19)
(1.18907 0.470949 2.13678e-19)
(1.12537 0.456893 -9.23318e-20)
(1.05908 0.437522 -3.65633e-19)
(0.991149 0.412484 1.81028e-22)
(0.928893 0.380938 -3.40241e-19)
(0.879614 0.349687 -4.15567e-19)
(0.843991 0.322781 2.54318e-19)
(0.819671 0.301475 -1.48385e-19)
(0.78221 0.278894 3.53558e-19)
(0.717203 0.245793 0)
(0.596931 0.200625 -5.08969e-19)
(0.416914 0.138921 7.516e-19)
(0.219996 0.07427 1.42579e-18)
(0.0542896 0.0186131 -1.67761e-18)
(0.463008 0.190916 1.5487e-19)
(1.04579 0.41214 -8.66676e-20)
(1.27643 0.521936 -1.5227e-19)
(1.32104 0.542528 2.07377e-19)
(1.29537 0.548964 1.15729e-20)
(1.24133 0.538355 -2.26508e-19)
(1.17854 0.522832 -1.21199e-19)
(1.11312 0.505344 -1.13112e-19)
(1.04495 0.482206 -2.03805e-19)
(0.974191 0.451663 3.27302e-19)
(0.908752 0.414981 3.46933e-19)
(0.858745 0.383049 6.60368e-19)
(0.822036 0.354771 0)
(0.785393 0.328422 5.95244e-21)
(0.754883 0.303361 -9.66059e-19)
(0.700445 0.27702 2.24779e-19)
(0.588925 0.227017 1.09564e-18)
(0.41633 0.160819 -3.22979e-19)
(0.223538 0.0867811 6.74857e-19)
(0.0572204 0.0222257 -5.63681e-20)
(0.454017 0.209714 5.9246e-21)
(1.03457 0.455516 -4.96975e-20)
(1.26684 0.576762 -9.58187e-20)
(1.31159 0.59848 2.86876e-19)
(1.28447 0.604055 -3.10117e-19)
(1.22972 0.590752 2.30373e-19)
(1.16588 0.572727 1.26331e-19)
(1.09886 0.552279 3.43202e-19)
(1.02788 0.525943 4.1463e-19)
(0.953169 0.49285 -3.72036e-19)
(0.885968 0.455986 0)
(0.834105 0.417283 -2.46989e-19)
(0.795217 0.386503 2.83566e-19)
(0.771442 0.360394 3.53439e-19)
(0.734394 0.33586 -2.04447e-19)
(0.675402 0.30016 -4.97329e-19)
(0.568665 0.251079 -1.48521e-19)
(0.406505 0.178004 -1.39124e-21)
(0.218735 0.0968636 0)
(0.0568079 0.0241898 0)
(0.445721 0.225434 2.12019e-20)
(1.02193 0.495559 0)
(1.25557 0.628196 -8.66979e-20)
(1.30023 0.651726 2.24808e-20)
(1.27191 0.656657 3.4112e-19)
(1.21663 0.640873 -8.89478e-20)
(1.15212 0.620507 1.29428e-19)
(1.08405 0.597413 -2.34874e-19)
(1.01218 0.568071 3.16719e-19)
(0.938129 0.531259 -1.17739e-19)
(0.868929 0.486898 1.97883e-19)
(0.814151 0.446888 7.83582e-19)
(0.774347 0.414364 1.37619e-20)
(0.736045 0.384825 -3.6947e-19)
(0.70787 0.357159 6.79465e-19)
(0.658128 0.327915 4.38802e-21)
(0.557432 0.27177 1.58897e-19)
(0.39786 0.194419 -7.5843e-19)
(0.211511 0.103532 7.75615e-19)
(0.0540984 0.0257228 -9.19599e-19)
(0.439624 0.244465 3.76465e-23)
(1.01063 0.534203 0)
(1.2434 0.6768 0)
(1.28762 0.701906 -3.88761e-20)
(1.25825 0.706067 -1.10957e-19)
(1.20256 0.688148 1.1572e-19)
(1.1375 0.665844 -2.51095e-19)
(1.06856 0.64035 0)
(0.994722 0.608295 -4.64179e-19)
(0.915342 0.568694 5.36878e-19)
(0.84079 0.522907 5.57497e-19)
(0.786399 0.479285 -2.86629e-19)
(0.74826 0.441473 -3.43698e-19)
(0.722987 0.413496 8.04294e-19)
(0.687907 0.385673 -2.41318e-19)
(0.633348 0.344691 -2.87894e-19)
(0.535417 0.290067 -1.72414e-19)
(0.383523 0.205682 -8.16913e-19)
(0.202062 0.107792 1.18126e-19)
(0.0500871 0.0262617 9.91669e-19)
(0.436123 0.262884 -9.79754e-22)
(0.999867 0.570589 1.15006e-20)
(1.23056 0.722557 2.34026e-20)
(1.27418 0.749551 -1.02177e-22)
(1.24396 0.75303 -8.43802e-20)
(1.18798 0.733007 2.10933e-19)
(1.12249 0.708873 0)
(1.05251 0.681348 1.39561e-19)
(0.977114 0.647126 -1.10046e-19)
(0.897594 0.604643 8.96828e-19)
(0.825904 0.554431 -1.26895e-19)
(0.768311 0.507819 1.4319e-19)
(0.724175 0.470073 0)
(0.688324 0.434119 -4.34644e-19)
(0.660277 0.40157 5.23942e-19)
(0.614852 0.368634 0)
(0.520585 0.304114 -3.72153e-19)
(0.367645 0.21561 1.09366e-18)
(0.190531 0.109937 1.28764e-19)
(0.0451656 0.0259058 -1.2199e-18)
(0.434181 0.279708 -1.76442e-20)
(0.990072 0.605238 2.33315e-20)
(1.21759 0.765428 0)
(1.26043 0.794039 -6.8891e-20)
(1.22945 0.796888 0)
(1.17314 0.77519 -2.50567e-19)
(1.10711 0.749555 0)
(1.03637 0.720202 0)
(0.95983 0.68395 -1.39331e-19)
(0.877798 0.63933 -8.50452e-19)
(0.798889 0.58802 -1.02782e-18)
(0.737358 0.537113 1.65336e-19)
(0.698601 0.491991 5.92487e-19)
(0.672864 0.458107 4.76796e-19)
(0.640081 0.426107 -1.6812e-18)
(0.588678 0.378714 -6.74725e-19)
(0.495618 0.317106 3.94793e-19)
(0.34902 0.220196 0)
(0.178084 0.110231 1.10832e-18)
(0.0400681 0.0246027 -1.31378e-18)
(0.432887 0.295406 3.20308e-20)
(0.980644 0.637914 -3.64819e-20)
(1.20467 0.805727 0)
(1.24651 0.836183 -1.06263e-20)
(1.21481 0.838518 3.55709e-20)
(1.15823 0.815115 0)
(1.09191 0.787989 7.65598e-20)
(1.02055 0.757027 9.26947e-20)
(0.942846 0.719323 -2.68289e-19)
(0.858909 0.672887 1.15249e-19)
(0.779207 0.616706 0)
(0.719535 0.562132 6.86762e-19)
(0.673865 0.517531 4.6419e-21)
(0.636865 0.475391 2.57001e-19)
(0.611186 0.435723 3.04671e-19)
(0.568407 0.398112 0)
(0.478553 0.32399 -6.47161e-19)
(0.330753 0.224036 1.27045e-18)
(0.165086 0.108753 -1.34498e-18)
(0.0351341 0.022906 2.8291e-18)
(0.431856 0.31049 0)
(0.971892 0.669179 0)
(1.19206 0.84335 -8.50773e-21)
(1.23277 0.875303 0)
(1.2004 0.877186 0)
(1.14362 0.852542 -2.37938e-19)
(1.077 0.824291 7.92007e-20)
(1.005 0.791913 1.74368e-20)
(0.925777 0.7526 -6.33366e-20)
(0.839276 0.70446 0)
(0.75657 0.648176 -1.54737e-19)
(0.690466 0.591629 -5.59063e-19)
(0.64548 0.538658 -6.6912e-19)
(0.620422 0.495798 -2.67639e-19)
(0.589478 0.457344 3.3031e-19)
(0.541317 0.400699 -7.78932e-19)
(0.451759 0.33141 1.39238e-18)
(0.309988 0.222652 3.99096e-21)
(0.152166 0.105768 -1.29133e-18)
(0.030736 0.0209804 -1.90884e-19)
(0.430903 0.325223 0)
(0.963603 0.698912 -3.58485e-20)
(1.1798 0.878832 1.95125e-20)
(1.21924 0.91242 0)
(1.18626 0.913902 0)
(1.12929 0.887921 4.91765e-19)
(1.06243 0.858457 0)
(0.989793 0.824876 0)
(0.909474 0.78449 -5.9136e-19)
(0.821385 0.735492 1.53926e-19)
(0.735425 0.675792 -1.38468e-18)
(0.667936 0.614101 0)
(0.620998 0.562332 -7.23176e-19)
(0.581536 0.511462 1.10073e-20)
(0.556702 0.460306 -1.05975e-18)
(0.51833 0.414265 4.19236e-19)
(0.434281 0.329373 2.44857e-21)
(0.293747 0.220677 -1.46819e-18)
(0.141254 0.10182 6.96123e-19)
(0.026812 0.0191322 2.04336e-19)
(0.430027 0.339575 0)
(0.955946 0.72729 -7.44959e-20)
(1.16797 0.911951 2.01446e-20)
(1.20611 0.946723 -4.64816e-20)
(1.17256 0.947821 -5.28186e-20)
(1.11546 0.920955 5.64083e-20)
(1.04841 0.89074 -5.97119e-20)
(0.97521 0.856045 6.14123e-19)
(0.893752 0.814695 6.32588e-19)
(0.803961 0.764588 1.19218e-18)
(0.716539 0.704633 1.15075e-18)
(0.644281 0.64458 1.99824e-19)
(0.590508 0.583457 1.03972e-18)
(0.562044 0.528855 6.37397e-19)
(0.532241 0.47888 7.60505e-19)
(0.489165 0.406914 -4.58924e-19)
(0.406453 0.327629 -5.37183e-19)
(0.274957 0.209392 6.28894e-19)
(0.131983 0.0971744 -3.72714e-19)
(0.0270192 0.0224301 6.61243e-19)
(0.429198 0.353459 1.19052e-19)
(0.94866 0.754121 1.13644e-19)
(1.1565 0.943234 1.51436e-20)
(1.19333 0.979323 1.63044e-20)
(1.15929 0.980054 1.37382e-19)
(1.10208 0.952156 -1.38679e-19)
(1.03491 0.921016 6.01022e-20)
(0.961335 0.885546 -2.09221e-20)
(0.879053 0.843419 -7.38761e-19)
(0.787157 0.792791 -1.29061e-18)
(0.694153 0.731611 8.08726e-20)
(0.617365 0.666087 0)
(0.56535 0.606119 0)
(0.51945 0.545324 -3.32666e-19)
(0.492826 0.475555 -1.24006e-18)
(0.459831 0.412634 9.88408e-19)
(0.391507 0.305372 5.87998e-19)
(0.277889 0.191068 0)
(0.142287 0.0741575 1.18882e-18)
(0.0207954 -0.00151069 -7.07684e-19)
(0.428429 0.366708 -6.24382e-20)
(0.94182 0.779539 5.6851e-20)
(1.14546 0.972377 -4.58514e-20)
(1.18104 1.00931 -7.12221e-21)
(1.14654 1.00965 3.30548e-20)
(1.08931 0.981129 -4.12096e-20)
(1.02213 0.949567 0)
(0.948168 0.913316 -7.75083e-19)
(0.864863 0.870751 9.09829e-20)
(0.771552 0.819775 0)
(0.679321 0.759087 0)
(0.60057 0.69605 1.25252e-19)
(0.533595 0.629504 1.65727e-19)
(0.496634 0.561361 -3.58309e-19)
(0.462244 0.494889 8.89992e-19)
(0.420841 0.393492 -1.07511e-18)
(0.35352 0.287518 -1.25736e-18)
(0.271322 0.166814 1.11169e-18)
(0.18665 0.105894 -4.24628e-19)
(0.114476 0.0834924 2.47781e-19)
(0.427542 0.379164 8.84459e-20)
(0.935158 0.803384 0)
(1.13476 0.999852 0)
(1.16915 1.03784 4.8018e-21)
(1.13428 1.03782 -3.88737e-21)
(1.07705 1.00847 -2.09901e-20)
(1.00987 0.976231 2.52816e-19)
(0.935734 0.939544 8.12027e-19)
(0.851841 0.896464 1.34989e-18)
(0.756909 0.845192 -9.58524e-20)
(0.65799 0.784493 1.95119e-19)
(0.569832 0.717979 -1.12678e-18)
(0.509077 0.653042 -1.10682e-18)
(0.449783 0.582912 -1.91717e-19)
(0.409208 0.488742 0)
(0.374798 0.400632 -1.00307e-20)
(0.321397 0.22609 6.87608e-19)
(0.280116 0.0663982 -1.16697e-18)
(0.24013 -0.0671282 8.89645e-19)
(0.0808089 -0.0954339 7.43274e-19)
(0.426608 0.391122 -1.99025e-19)
(0.928789 0.825959 -9.37237e-20)
(1.12444 1.02553 6.80478e-21)
(1.15768 1.06417 2.3019e-20)
(1.12242 1.06382 0)
(1.06521 1.03408 -2.3064e-19)
(0.998125 1.00175 -3.5093e-19)
(0.923734 0.9647 9.42015e-21)
(0.839026 0.921704 -7.1064e-19)
(0.7426 0.871008 -9.41587e-20)
(0.644096 0.811354 8.74561e-20)
(0.559141 0.748762 9.88849e-19)
(0.4768 0.681004 1.08063e-18)
(0.423677 0.601329 1.86121e-19)
(0.373134 0.520344 9.44903e-19)
(0.303902 0.377535 0)
(0.19048 0.213784 0)
(0.0194937 0.23359 8.03327e-19)
(-0.075029 0.628903 -3.19817e-20)
(0.00421758 1.52536 -9.72638e-19)
(0.425498 0.402426 1.11801e-19)
(0.922566 0.847244 2.42869e-19)
(1.11437 1.04995 -2.93208e-19)
(1.14649 1.08966 1.03732e-19)
(1.11088 1.08916 1.95832e-20)
(1.05367 1.05895 -2.11674e-19)
(0.986562 1.02634 0)
(0.912046 0.989378 -6.88076e-19)
(0.826778 0.946452 0)
(0.728928 0.895824 1.35802e-18)
(0.624794 0.836578 -1.03357e-19)
(0.525508 0.773751 1.1589e-19)
(0.45273 0.709798 1.23129e-18)
(0.37054 0.640253 -4.0022e-19)
(0.281729 0.525971 -4.8098e-19)
(0.206396 0.436783 0)
(0.0977712 0.53876 0)
(0.0298809 1.29806 0)
(0.0744933 2.44922 -4.57619e-19)
(0.103366 2.90395 -2.79824e-19)
(0.424228 0.41317 0)
(0.916627 0.867347 0)
(1.10472 1.07284 1.10115e-19)
(1.13577 1.11319 -7.88123e-20)
(1.09978 1.11258 -1.4523e-20)
(1.04257 1.08233 2.05083e-19)
(0.97556 1.05002 4.38446e-20)
(0.90082 1.01324 -3.41369e-20)
(0.814997 0.971137 9.85108e-20)
(0.715613 0.922192 -1.55906e-18)
(0.610543 0.865869 1.90267e-19)
(0.518188 0.808301 9.84928e-19)
(0.420106 0.747128 -1.2288e-18)
(0.343831 0.66302 -1.32949e-18)
(0.270678 0.589846 4.47179e-19)
(0.20013 0.715059 0)
(0.131356 1.52833 6.24834e-19)
(0.130682 2.68361 6.97974e-19)
(0.138334 3.08457 -7.80892e-19)
(0.129369 3.22059 8.47264e-19)
(0.422783 0.423443 0)
(0.910794 0.886131 2.37139e-19)
(1.09531 1.09448 -2.64838e-20)
(1.12537 1.13598 1.43461e-19)
(1.08907 1.13545 1.52442e-20)
(1.03188 1.10502 0)
(0.964825 1.07274 0)
(0.889998 1.0364 0)
(0.803585 0.994883 5.85217e-19)
(0.703142 0.94659 7.47586e-20)
(0.594996 0.891072 0)
(0.486136 0.834744 -9.82005e-19)
(0.404041 0.779059 0)
(0.294631 0.716706 9.52951e-19)
(0.211499 0.788897 -6.39919e-19)
(0.162955 1.45495 -5.14412e-19)
(0.165695 2.67237 -1.21526e-18)
(0.186317 3.12639 -6.46188e-19)
(0.17689 3.26906 -9.0206e-19)
(0.162266 3.30963 7.0695e-19)
(0.421299 0.4329 -8.58932e-20)
(0.90527 0.903864 1.54203e-20)
(1.08637 1.11481 -3.10268e-20)
(1.1155 1.15695 -1.03573e-19)
(1.07882 1.1565 0)
(1.02164 1.1263 0)
(0.95469 1.09465 0)
(0.879693 1.05888 4.76014e-20)
(0.793057 1.01866 -7.37042e-19)
(0.691731 0.973106 0)
(0.581773 0.922588 0)
(0.484276 0.873096 0)
(0.370696 0.821176 0)
(0.307359 0.806222 6.98948e-19)
(0.276775 1.17874 1.71106e-18)
(0.260432 2.36342 5.07636e-19)
(0.271466 3.08256 1.04026e-18)
(0.265325 3.28669 -8.09105e-19)
(0.215672 3.35335 3.01858e-19)
(0.182365 3.36592 0)
(0.419671 0.441991 8.99563e-20)
(0.8996 0.920756 -5.42975e-19)
(1.07739 1.13451 -1.37904e-19)
(1.1057 1.1779 -2.69414e-20)
(1.06875 1.17774 -6.22226e-21)
(1.01162 1.14758 1.51211e-19)
(0.944647 1.11614 -2.09055e-20)
(0.869657 1.08105 -5.96289e-19)
(0.782526 1.04181 0)
(0.680419 0.997345 -9.04254e-20)
(0.569375 0.947302 8.22586e-20)
(0.454351 0.898646 0)
(0.371214 0.861638 0)
(0.32196 0.987192 -8.73918e-19)
(0.283686 1.84911 1.15395e-19)
(0.278915 2.93807 -3.90589e-19)
(0.298984 3.29145 8.25215e-19)
(0.272252 3.39125 6.19797e-19)
(0.205371 3.41614 -8.80384e-19)
(0.180046 3.42517 4.39123e-19)
(0.417713 0.451231 1.81549e-19)
(0.893698 0.938229 5.39399e-19)
(1.06813 1.15472 1.61604e-19)
(1.09563 1.19866 0)
(1.05838 1.19859 0)
(1.00135 1.1687 -1.14152e-19)
(0.934598 1.13799 2.04571e-19)
(0.859657 1.10363 5.35014e-19)
(0.772844 1.0659 3.20051e-20)
(0.670673 1.02477 1.20075e-18)
(0.557998 0.981504 -1.34899e-18)
(0.453787 0.939261 0)
(0.374376 0.94488 0)
(0.341684 1.34803 -6.04694e-19)
(0.343923 2.47082 -7.22386e-19)
(0.386655 3.19915 0)
(0.411738 3.37561 -8.81244e-19)
(0.341825 3.43929 2.00235e-20)
(0.270198 3.48355 4.98607e-19)
(0.246816 3.50911 -1.87139e-19)
(0.415295 0.460871 -3.48747e-19)
(0.886862 0.956228 -2.61399e-19)
(1.05781 1.1758 0)
(1.08462 1.22104 0)
(1.04725 1.22123 0)
(0.99045 1.19122 0)
(0.923875 1.16053 -2.27892e-19)
(0.849244 1.1267 5.11884e-19)
(0.762212 1.08997 0)
(0.659768 1.04996 -1.09524e-18)
(0.549023 1.00667 2.42932e-18)
(0.438625 0.972285 9.75607e-20)
(0.384174 1.0565 1.25885e-19)
(0.39133 1.73908 9.939e-19)
(0.411467 2.89238 -5.4497e-19)
(0.448403 3.32487 0)
(0.430576 3.45139 2.54225e-19)
(0.343839 3.53924 9.44214e-20)
(0.264872 3.60486 1.21741e-19)
(0.189497 3.58448 4.23054e-20)
(0.412389 0.470839 1.67537e-19)
(0.879507 0.975624 -2.76788e-19)
(1.04687 1.1982 0)
(1.07296 1.24363 -3.53548e-20)
(1.03539 1.24367 1.03225e-19)
(0.978858 1.21372 0)
(0.912799 1.18364 0)
(0.838618 1.15044 -9.0583e-19)
(0.752573 1.11505 -7.47393e-20)
(0.651282 1.07842 1.09942e-18)
(0.536095 1.04249 -1.15923e-18)
(0.44982 1.02802 6.62051e-19)
(0.413706 1.2434 0)
(0.435389 2.1753 -5.3064e-19)
(0.476405 3.14458 3.42242e-19)
(0.537559 3.43048 2.32413e-19)
(0.531014 3.52885 0)
(0.466094 3.61431 -1.41664e-20)