/*--------------------------------*- C++ -*----------------------------------*\
| =========                 |                                                 |
| \\      /  F ield         | OpenFOAM: The Open Source CFD Toolbox           |
|  \\    /   O peration     | Version:  v2012                                 |
|   \\  /    A nd           | Website:  www.openfoam.com                      |
|    \\/     M anipulation  |                                                 |
\*---------------------------------------------------------------------------*/
FoamFile
{
    version     2.0;
    format      ascii;
    class       volScalarField;
    location    "18";
    object      p;
}
// * * * * * * * * * * * * * * * * * * * * * * * * * * * * * * * * * * * * * //

dimensions      [0 2 -2 0 0 0 0];


internalField   nonuniform List<scalar> 
2200
(
0.403425
0.381946
0.366062
0.350431
0.335886
0.323437
0.313147
0.305049
0.299323
0.296335
0.296623
0.300127
0.306223
0.31459
0.32507
0.337657
0.352292
0.367979
0.383897
0.405394
0.335801
0.332552
0.329665
0.325598
0.320179
0.313776
0.307254
0.301382
0.296917
0.294437
0.294726
0.297747
0.302602
0.308769
0.315497
0.322042
0.327566
0.331712
0.334643
0.337906
0.295775
0.296028
0.298126
0.299513
0.299986
0.299224
0.297288
0.294709
0.292245
0.290665
0.290992
0.293141
0.296046
0.29894
0.301104
0.302026
0.301663
0.30038
0.298359
0.298128
0.27306
0.274541
0.277277
0.279887
0.282502
0.284659
0.28588
0.286149
0.285708
0.285258
0.285642
0.286752
0.287683
0.287779
0.286825
0.284862
0.282387
0.279858
0.277168
0.275709
0.258836
0.260767
0.263734
0.266755
0.269745
0.272698
0.275314
0.277329
0.278538
0.279161
0.279622
0.279773
0.279147
0.277563
0.275261
0.272532
0.269702
0.266781
0.263878
0.261958
0.251974
0.253541
0.255778
0.258359
0.261073
0.263775
0.266376
0.268866
0.270979
0.272441
0.272958
0.272413
0.271027
0.269072
0.266845
0.264417
0.261901
0.25946
0.2573
0.255734
0.248835
0.249841
0.251218
0.253312
0.255648
0.257892
0.259973
0.262033
0.264066
0.265727
0.266352
0.26582
0.264682
0.263265
0.261636
0.259719
0.257615
0.255676
0.254377
0.253374
0.246658
0.247204
0.248127
0.250056
0.25224
0.254334
0.256223
0.257978
0.259633
0.261041
0.261846
0.261838
0.261259
0.260299
0.258956
0.257263
0.255352
0.253607
0.252765
0.252225
0.245104
0.245333
0.246019
0.24768
0.249598
0.251577
0.253498
0.25529
0.256879
0.258219
0.259206
0.259556
0.259239
0.258436
0.257236
0.255785
0.254205
0.252775
0.252192
0.251979
0.243844
0.243867
0.244305
0.245354
0.246641
0.248133
0.249834
0.251667
0.253463
0.255128
0.256356
0.256872
0.256651
0.256019
0.255255
0.254354
0.253479
0.252706
0.252387
0.252331
0.24166
0.24164
0.241891
0.242423
0.243147
0.244113
0.245347
0.246924
0.248749
0.250693
0.252304
0.253219
0.253522
0.253387
0.253111
0.252844
0.25262
0.252415
0.252317
0.252313
0.238533
0.238481
0.238687
0.239075
0.239701
0.240517
0.241542
0.242938
0.244656
0.24668
0.248644
0.250097
0.251071
0.25155
0.251712
0.251849
0.25188
0.251872
0.251861
0.251866
0.235049
0.235017
0.235253
0.235676
0.236386
0.237328
0.23855
0.240113
0.242017
0.244308
0.246651
0.248519
0.249805
0.250677
0.251242
0.251528
0.251597
0.251612
0.251613
0.251618
0.231166
0.231164
0.231361
0.231829
0.232579
0.233622
0.235069
0.236923
0.239258
0.242106
0.245063
0.247422
0.249055
0.250204
0.251002
0.251447
0.251685
0.251811
0.251862
0.25186
0.226587
0.226585
0.226756
0.227195
0.22793
0.228991
0.230547
0.232661
0.23547
0.239021
0.242832
0.245942
0.248169
0.249719
0.250813
0.251527
0.251985
0.25226
0.252381
0.252373
0.221027
0.221005
0.221252
0.221735
0.222549
0.223772
0.225531
0.227988
0.231343
0.235692
0.240485
0.244523
0.247466
0.249542
0.251017
0.252011
0.252671
0.253073
0.253253
0.253241
0.214562
0.214528
0.214829
0.215441
0.216454
0.217983
0.220176
0.223236
0.227381
0.232756
0.238703
0.243788
0.247505
0.250169
0.25202
0.253264
0.25407
0.254539
0.254745
0.254727
0.206892
0.206865
0.207244
0.208092
0.209424
0.21136
0.214136
0.218001
0.223222
0.229961
0.237363
0.243658
0.248259
0.251536
0.253789
0.255313
0.256309
0.256897
0.257157
0.257136
0.197965
0.197929
0.198384
0.199386
0.201039
0.203507
0.207023
0.211909
0.218495
0.226953
0.236169
0.24394
0.249623
0.253666
0.256472
0.258387
0.259631
0.260352
0.26066
0.260624
0.187043
0.187027
0.187664
0.18898
0.191093
0.194208
0.198681
0.204906
0.213236
0.223837
0.235262
0.244829
0.251815
0.256778
0.260218
0.262555
0.264092
0.265002
0.265392
0.265351
0.173882
0.173833
0.174618
0.176286
0.179026
0.183114
0.188913
0.196896
0.207466
0.220717
0.234785
0.246472
0.25499
0.261044
0.265272
0.268164
0.270056
0.271159
0.271617
0.271553
0.157153
0.157196
0.158339
0.160614
0.164295
0.169726
0.177361
0.187746
0.201207
0.217712
0.234929
0.249105
0.259418
0.266765
0.271889
0.275394
0.277706
0.279054
0.279621
0.279546
0.136148
0.136127
0.137687
0.140892
0.146005
0.153485
0.163769
0.177368
0.194478
0.214903
0.235771
0.252778
0.26512
0.273949
0.280185
0.284499
0.287369
0.289056
0.28973
0.289596
0.108428
0.108767
0.111267
0.115956
0.123341
0.133951
0.147922
0.16573
0.18735
0.212392
0.237424
0.257618
0.272277
0.282831
0.290365
0.295657
0.299191
0.301231
0.302074
0.301917
0.0713559
0.0719547
0.0761032
0.0839925
0.09543
0.110679
0.129816
0.153065
0.180117
0.210471
0.240129
0.263788
0.280958
0.293434
0.30246
0.308928
0.31342
0.316131
0.317203
0.316889
0.0218816
0.0224849
0.0303337
0.0437249
0.061747
0.0838216
0.109842
0.13973
0.173105
0.209383
0.243961
0.27125
0.291095
0.305674
0.316462
0.324405
0.330008
0.333311
0.3344
0.33398
-0.0455205
-0.0418784
-0.025076
-0.00242725
0.0244128
0.0548378
0.0887345
0.12605
0.166497
0.209411
0.249613
0.281314
0.304691
0.322217
0.335501
0.345675
0.353371
0.358147
0.359616
0.359421
-0.12461
-0.111817
-0.0829886
-0.0501406
-0.0135944
0.0254646
0.0675144
0.112641
0.160497
0.210478
0.257034
0.293897
0.321405
0.342551
0.35919
0.372356
0.382899
0.390092
0.393817
0.394369
-0.190429
-0.173593
-0.137144
-0.0959882
-0.0506923
-0.00312331
0.0471334
0.0999855
0.154994
0.211734
0.264161
0.30562
0.336744
0.360772
0.379809
0.394976
0.406705
0.415313
0.419099
0.419415
-0.239358
-0.224465
-0.183037
-0.136514
-0.0844456
-0.0296658
0.0279079
0.0877558
0.149435
0.21257
0.270458
0.315975
0.349879
0.375769
0.395945
0.411828
0.424085
0.432563
0.436345
0.436832
-0.279565
-0.265304
-0.221125
-0.171352
-0.11409
-0.0536018
0.0100369
0.0759914
0.143818
0.212898
0.275701
0.324419
0.360115
0.386959
0.407429
0.423364
0.435727
0.44424
0.448349
0.448813
-0.314145
-0.299647
-0.253433
-0.201307
-0.139959
-0.0750369
-0.00645214
0.0647735
0.138044
0.212238
0.27907
0.330269
0.367314
0.394825
0.415715
0.431864
0.444285
0.452985
0.457217
0.4576
-0.344419
-0.329902
-0.281672
-0.227262
-0.162695
-0.094379
-0.0217609
0.0539386
0.131861
0.210566
0.281222
0.335012
0.373392
0.401694
0.42292
0.439068
0.451496
0.460231
0.464283
0.464601
-0.371688
-0.357295
-0.307183
-0.250345
-0.183079
-0.112104
-0.036184
0.0432995
0.125302
0.208244
0.282716
0.33887
0.378702
0.407738
0.429528
0.445925
0.45822
0.466963
0.47081
0.471044
-0.396623
-0.382395
-0.330928
-0.271714
-0.201989
-0.128689
-0.0499561
0.0327782
0.118427
0.205329
0.283457
0.342444
0.384138
0.414163
0.436182
0.45257
0.464746
0.473264
0.477246
0.477582
-0.420143
-0.405492
-0.353408
-0.292204
-0.220179
-0.144605
-0.0632973
0.0223185
0.11125
0.201994
0.284076
0.346146
0.389364
0.420155
0.442711
0.459337
0.471598
0.480041
0.483966
0.484281
-0.442255
-0.427424
-0.374862
-0.312167
-0.238076
-0.160238
-0.0764543
0.0118244
0.10385
0.198302
0.28426
0.348986
0.394185
0.426285
0.44943
0.46633
0.47866
0.486822
0.490835
0.491177
-0.463103
-0.448336
-0.39539
-0.331537
-0.255812
-0.175868
-0.0897168
0.00108602
0.0959703
0.19371
0.283153
0.351283
0.399212
0.432723
0.456521
0.473667
0.486067
0.494329
0.498103
0.498375
-0.483241
-0.468336
-0.415038
-0.350243
-0.273312
-0.191583
-0.103315
-0.0102022
0.0872302
0.188046
0.281273
0.353129
0.403474
0.438934
0.463847
0.481505
0.493968
0.501839
0.505579
0.505815
-0.503121
-0.487627
-0.433968
-0.368277
-0.290425
-0.207299
-0.117283
-0.0221514
0.0776523
0.181527
0.278597
0.353985
0.407823
0.445648
0.471842
0.489869
0.502303
0.510121
0.513542
0.513597
-0.522694
-0.50638
-0.452343
-0.385728
-0.307072
-0.222864
-0.131437
-0.0345522
0.0674583
0.174067
0.274477
0.35382
0.411494
0.452427
0.480566
0.499285
0.51144
0.51846
0.52159
0.521513
-0.541768
-0.524756
-0.470278
-0.402705
-0.323247
-0.238117
-0.145529
-0.0471731
0.0567234
0.165626
0.269185
0.352769
0.414351
0.458896
0.489799
0.509792
0.521552
0.527736
0.529883
0.529541
-0.560184
-0.542678
-0.48777
-0.419275
-0.339007
-0.253015
-0.159429
-0.0598762
0.0455548
0.156507
0.263042
0.35045
0.416199
0.46506
0.499775
0.522202
0.533849
0.537226
0.537017
0.536951
-0.577936
-0.560103
-0.504758
-0.435429
-0.354394
-0.267597
-0.17314
-0.072614
0.0340504
0.14668
0.255383
0.345969
0.416295
0.470139
0.509902
0.536356
0.549438
0.550208
0.545265
0.542599
-0.595004
-0.576901
-0.521161
-0.451115
-0.369414
-0.281905
-0.186713
-0.0853993
0.0222529
0.136128
0.246606
0.340303
0.414686
0.473788
0.519566
0.552577
0.571317
0.568124
0.560592
0.565384
-0.611405
-0.59303
-0.536894
-0.46625
-0.384014
-0.295927
-0.20013
-0.0981784
0.0102611
0.125148
0.237094
0.332942
0.410843
0.474953
0.527014
0.568307
0.598043
0.589865
0.545836
0.496338
-0.627073
-0.60849
-0.551987
-0.480871
-0.398259
-0.309767
-0.213546
-0.111137
-0.00218377
0.113385
0.226134
0.32302
0.403298
0.472161
0.531023
0.582209
0.627104
0.651629
0.676411
0.727028
-0.641972
-0.623359
-0.566529
-0.495098
-0.412281
-0.323594
-0.227182
-0.124615
-0.0155274
0.100215
0.213296
0.310888
0.3927
0.464024
0.524798
0.57569
0.612032
0.628522
0.610118
0.615806
-0.656061
-0.637608
-0.580499
-0.508882
-0.425979
-0.337272
-0.24088
-0.138422
-0.0295384
0.0859498
0.198676
0.295245
0.375657
0.445952
0.504394
0.548239
0.556254
0.522386
0.470844
0.464197
-0.669381
-0.65123
-0.593904
-0.522237
-0.439353
-0.350787
-0.254605
-0.152493
-0.0441774
0.0704244
0.181801
0.276873
0.353666
0.417754
0.468484
0.486245
0.457584
0.390853
0.320875
0.312919
-0.681978
-0.664212
-0.606771
-0.535197
-0.452432
-0.364149
-0.268335
-0.166806
-0.0594043
0.0538309
0.163419
0.255597
0.326769
0.377211
0.403314
0.393609
0.347183
0.246718
0.159368
0.14419
-0.694304
-0.67696
-0.619483
-0.548126
-0.465571
-0.377667
-0.282356
-0.181607
-0.0754238
0.0358874
0.142788
0.230273
0.295023
0.329327
0.321202
0.283646
0.178452
0.0545027
-0.0546069
-0.0767301
-0.7072
-0.690224
-0.632704
-0.56162
-0.479327
-0.391818
-0.297078
-0.197235
-0.092467
0.0165251
0.119699
0.202435
0.258794
0.270937
0.227863
0.137966
-0.0253149
-0.182138
-0.312021
-0.336679
-0.721151
-0.704423
-0.646727
-0.57589
-0.493869
-0.40672
-0.312581
-0.213701
-0.110492
-0.00421477
0.0947853
0.171945
0.216468
0.200503
0.131524
-0.0262739
-0.241697
-0.46657
-0.653701
-0.700377
-0.736188
-0.719601
-0.661591
-0.590939
-0.509156
-0.422331
-0.328809
-0.230984
-0.129476
-0.026216
0.067384
0.137714
0.169184
0.118617
0.0131234
-0.196845
-0.454163
-0.770058
-1.11275
-1.25332
-0.752365
-0.735869
-0.677381
-0.606828
-0.525215
-0.438681
-0.345787
-0.249064
-0.149351
-0.0492464
0.038435
0.102505
0.114756
0.0289254
-0.130783
-0.370434
-0.640645
-1.02634
-1.65746
-2.25228
-0.769661
-0.753192
-0.694139
-0.623593
-0.542033
-0.455739
-0.36343
-0.267837
-0.170037
-0.0732189
0.00857493
0.0649225
0.0605772
-0.0551874
-0.274327
-0.554653
-0.80067
-1.08688
-1.72305
-3.39376
-0.788142
-0.771629
-0.711927
-0.641328
-0.55974
-0.473657
-0.381934
-0.287523
-0.191723
-0.0980517
-0.0219315
0.0244491
0.00324406
-0.125266
-0.388438
-0.68483
-0.877651
-0.95677
-0.99603
-1.42618
-0.807731
-0.791115
-0.730905
-0.660301
-0.57866
-0.492845
-0.401781
-0.308669
-0.215193
-0.12551
-0.0550682
-0.0187244
-0.0631367
-0.178099
-0.450264
-0.72017
-0.877309
-0.910067
-0.866767
-0.917398
-0.828407
-0.811585
-0.751002
-0.680575
-0.598834
-0.513354
-0.423066
-0.331455
-0.240646
-0.155471
-0.0895625
-0.0633865
-0.123585
-0.233725
-0.499167
-0.722622
-0.842243
-0.872277
-0.906971
-0.925184
-0.849914
-0.832789
-0.772218
-0.702197
-0.620177
-0.535123
-0.445734
-0.35562
-0.267533
-0.187086
-0.125382
-0.106401
-0.174293
-0.295312
-0.539019
-0.72659
-0.829177
-0.806624
-0.832589
-0.832873
-0.871957
-0.854562
-0.794662
-0.724933
-0.642439
-0.557974
-0.469585
-0.381035
-0.295808
-0.220129
-0.163288
-0.153729
-0.226791
-0.364655
-0.581976
-0.740505
-0.825249
-0.82772
-0.830151
-0.837088
-0.894139
-0.876747
-0.818044
-0.7484
-0.665292
-0.581666
-0.494402
-0.407393
-0.324969
-0.253864
-0.201296
-0.202058
-0.277498
-0.437933
-0.622408
-0.752696
-0.815781
-0.856501
-0.822866
-0.829192
-0.916284
-0.899092
-0.841552
-0.771999
-0.688415
-0.605897
-0.519609
-0.433847
-0.354104
-0.287352
-0.23824
-0.246637
-0.334333
-0.511189
-0.654809
-0.765437
-0.789479
-0.832719
-0.795455
-0.799064
-0.937825
-0.921168
-0.864452
-0.795024
-0.711602
-0.630193
-0.544545
-0.460278
-0.382952
-0.320227
-0.273375
-0.280321
-0.398826
-0.598571
-0.677907
-0.712117
-0.708462
-0.733188
-0.752717
-0.759424
-0.958129
-0.942144
-0.886103
-0.816602
-0.734821
-0.653944
-0.568589
-0.485782
-0.409949
-0.350449
-0.309945
-0.305248
-0.460349
-0.696229
-0.732298
-0.6325
-0.63547
-0.665542
-0.711398
-0.721672
-0.976284
-0.96128
-0.90611
-0.836791
-0.757034
-0.675938
-0.590615
-0.509292
-0.433826
-0.374834
-0.343813
-0.323974
-0.52197
-0.832748
-0.979118
-0.949473
-0.956641
-0.952479
-0.949605
-0.938754
-0.99144
-0.977626
-0.923988
-0.855242
-0.776817
-0.694885
-0.610324
-0.530595
-0.454984
-0.392364
-0.371884
-0.329447
-0.561026
-0.975846
-1.4554
-1.80679
-1.90943
-1.84878
-1.74834
-1.66484
-1.00243
-0.990051
-0.938585
-0.870549
-0.792584
-0.710986
-0.627197
-0.547144
-0.471521
-0.401798
-0.390987
-0.335372
-0.572487
-1.01081
-1.60998
-2.14381
-2.28931
-2.13441
-2.0207
-1.93673
-1.00835
-0.997471
-0.948636
-0.881351
-0.803609
-0.722713
-0.639495
-0.557503
-0.480046
-0.407244
-0.386905
-0.333703
-0.516394
-0.790997
-1.12596
-1.3561
-1.36237
-1.26522
-1.12114
-1.00068
-1.00734
-0.99796
-0.952285
-0.886108
-0.808932
-0.728622
-0.645927
-0.562114
-0.481612
-0.402037
-0.360387
-0.291801
-0.306916
-0.228511
-0.122831
-0.0216864
0.111194
0.230385
0.302863
0.343822
-0.998079
-0.990267
-0.948719
-0.884051
-0.808026
-0.72844
-0.646083
-0.561813
-0.477201
-0.382315
-0.310516
-0.220872
-0.0434946
0.284912
0.667839
0.974613
1.19829
1.3388
1.40534
1.4275
-0.978267
-0.971716
-0.935838
-0.874079
-0.800089
-0.722058
-0.640485
-0.555944
-0.465727
-0.357146
-0.247016
-0.146058
0.133424
0.552808
0.999173
1.37154
1.6465
1.80583
1.86986
1.88356
-0.947699
-0.942308
-0.91246
-0.854426
-0.783635
-0.709066
-0.630222
-0.546941
-0.452511
-0.340062
-0.190141
-0.0786818
0.194447
0.566844
0.969736
1.30924
1.56696
1.72048
1.7839
1.79872
-0.90533
-0.901549
-0.878164
-0.825892
-0.759615
-0.689714
-0.617472
-0.54064
-0.453285
-0.345962
-0.176294
-0.0244779
0.179906
0.45443
0.776529
1.04504
1.26317
1.40059
1.46514
1.48523
-0.849335
-0.84741
-0.829152
-0.784197
-0.726662
-0.665156
-0.603165
-0.537487
-0.461028
-0.377224
-0.227247
-0.0522511
0.0897986
0.297024
0.540795
0.741875
0.912409
1.02337
1.08119
1.10152
-0.777699
-0.777704
-0.763917
-0.729612
-0.684885
-0.63731
-0.591231
-0.544858
-0.497398
-0.447507
-0.346153
-0.213498
-0.0538924
0.13436
0.326833
0.485169
0.616593
0.706021
0.747025
0.758998
-0.699249
-0.699824
-0.69128
-0.670402
-0.641207
-0.610524
-0.583395
-0.56218
-0.554898
-0.552278
-0.537854
-0.437554
-0.254207
-0.0631883
0.117262
0.258586
0.373207
0.450733
0.466482
0.468665
-0.630389
-0.630536
-0.62648
-0.616166
-0.60161
-0.587298
-0.579951
-0.587742
-0.628788
-0.697989
-0.803701
-0.722358
-0.531077
-0.332749
-0.131228
0.0322241
0.137695
0.185407
0.202529
0.210504
-0.569904
-0.570781
-0.570341
-0.568078
-0.562431
-0.562716
-0.57255
-0.607682
-0.69454
-0.858121
-1.09813
-1.02193
-0.80579
-0.566907
-0.340314
-0.174453
-0.08716
-0.039518
-0.0162996
-0.00882892
-0.508831
-0.510769
-0.511597
-0.513678
-0.517982
-0.528711
-0.542656
-0.596544
-0.709375
-0.895748
-1.27453
-1.17702
-0.936439
-0.670918
-0.453815
-0.323182
-0.23894
-0.19868
-0.183971
-0.181229
-0.438348
-0.440395
-0.441995
-0.445156
-0.452473
-0.465357
-0.490407
-0.545085
-0.659838
-0.860852
-1.14111
-1.05609
-0.832362
-0.613747
-0.473514
-0.381531
-0.322163
-0.306127
-0.298524
-0.297569
-0.35987
-0.36176
-0.364142
-0.367013
-0.372589
-0.383905
-0.406765
-0.452546
-0.54485
-0.702686
-0.873699
-0.770529
-0.589503
-0.479684
-0.411659
-0.361367
-0.34723
-0.341635
-0.338508
-0.337918
-0.276633
-0.27801
-0.280178
-0.282793
-0.28659
-0.293862
-0.308409
-0.338141
-0.397392
-0.495856
-0.592557
-0.476464
-0.371837
-0.326241
-0.291626
-0.297351
-0.30381
-0.306434
-0.307751
-0.308122
-0.195848
-0.196674
-0.198183
-0.199785
-0.201768
-0.205137
-0.211303
-0.224593
-0.251525
-0.29592
-0.329704
-0.253878
-0.224931
-0.208102
-0.202239
-0.223486
-0.233511
-0.240129
-0.243341
-0.244391
-0.124597
-0.125016
-0.125901
-0.126628
-0.12719
-0.127706
-0.127773
-0.128571
-0.130451
-0.129176
-0.109151
-0.106579
-0.116855
-0.124422
-0.139376
-0.157304
-0.166562
-0.17299
-0.175938
-0.176965
-0.0673371
-0.0674745
-0.0679363
-0.0680972
-0.0678347
-0.0669218
-0.0641246
-0.0588668
-0.0493611
-0.0287842
-0.000848655
-0.00957799
-0.0395164
-0.0617404
-0.0845203
-0.0999473
-0.108743
-0.114302
-0.116858
-0.117788
-0.0251842
-0.0251793
-0.025412
-0.0253182
-0.0246556
-0.0232558
-0.019906
-0.0136078
-0.00263542
0.0166406
0.0408564
0.0264229
-0.00133711
-0.0231144
-0.0436919
-0.056277
-0.0638185
-0.0682812
-0.0704382
-0.0712681
0.00369915
0.0037309
0.00360375
0.00368722
0.00442243
0.0058232
0.00883432
0.0141418
0.0229143
0.0367779
0.0518539
0.0383229
0.016475
-0.00109682
-0.0167809
-0.0263172
-0.0321737
-0.0355437
-0.0372163
-0.03786
0.0224535
0.0224579
0.0223308
0.0221934
0.0226221
0.023626
0.0259498
0.0299052
0.0359999
0.0446987
0.0518792
0.0419406
0.0251454
0.011731
0.000337381
-0.00677282
-0.0112499
-0.0138238
-0.0151028
-0.0156019
0.0337437
0.033718
0.0335089
0.033062
0.0329515
0.0332474
0.0345906
0.0371361
0.0410565
0.0460739
0.0485045
0.0413595
0.0288353
0.0189703
0.0107737
0.00541834
0.00193722
-0.000101613
-0.00110001
-0.00145321
0.0392707
0.0392286
0.0389333
0.0382547
0.0377063
0.0373583
0.0376979
0.0388456
0.0409958
0.0436378
0.0438702
0.0384745
0.0295571
0.0224376
0.0165642
0.0125442
0.00985772
0.00824498
0.0074723
0.00722062
0.0405379
0.0404907
0.0401697
0.039437
0.038717
0.0380566
0.0377344
0.0378127
0.0385428
0.039493
0.0386885
0.0345745
0.0283704
0.0232973
0.0191393
0.0161935
0.0141829
0.0129493
0.0123709
0.0121948
0.0390993
0.0390563
0.0387705
0.0381182
0.0374164
0.0367136
0.0361283
0.0356629
0.0354795
0.0352451
0.0338142
0.0305275
0.0261621
0.0225539
0.0196323
0.0175141
0.0160439
0.0151286
0.0147083
0.0145835
0.0361764
0.0361457
0.0359045
0.0353445
0.0346962
0.0340199
0.0333547
0.0327057
0.0320984
0.0312468
0.029527
0.0267906
0.023615
0.0210006
0.0189059
0.0173592
0.0162686
0.0155816
0.0152734
0.0151855
0.0323617
0.0323432
0.0321337
0.0316418
0.0310383
0.0303827
0.0296762
0.0289681
0.0282122
0.027187
0.0255201
0.0232773
0.0209173
0.0189753
0.0174195
0.0162549
0.0154238
0.0148947
0.0146644
0.0146032
0.0279391
0.0279279
0.0277453
0.0273151
0.0267734
0.0261622
0.0254638
0.024749
0.0239507
0.0229582
0.0215246
0.0197609
0.0180074
0.0165595
0.0153959
0.0145178
0.013885
0.0134758
0.0133021
0.0132576
0.0231229
0.0231175
0.0229705
0.0226184
0.0221686
0.0216418
0.0210215
0.0203663
0.0196001
0.0187032
0.0175237
0.0161764
0.0148888
0.0138275
0.0129734
0.0123262
0.0118583
0.0115539
0.0114285
0.0113972
0.0181056
0.0181027
0.0179958
0.0177256
0.0173869
0.0169697
0.0164757
0.0159432
0.0152832
0.0145282
0.0135838
0.0125762
0.0116498
0.0108955
0.0102873
0.00982557
0.00949204
0.00927356
0.00918628
0.00916359
0.0130068
0.0130075
0.0129363
0.0127424
0.012501
0.0121951
0.0118431
0.0114578
0.0109592
0.0104008
0.00970735
0.00899899
0.00836197
0.00785093
0.00743899
0.00712444
0.00689683
0.00674914
0.00669255
0.00667873
0.00784515
0.00784725
0.00780953
0.00768299
0.00753924
0.00735044
0.00713192
0.00690284
0.00658462
0.00625504
0.00583257
0.00541728
0.00504052
0.00474483
0.00450224
0.00431432
0.00417606
0.00408475
0.00405386
0.00404586
0.00265056
0.00265306
0.00264683
0.00259066
0.00254562
0.00246788
0.0023781
0.00231575
0.00218548
0.00209147
0.00194267
0.00181172
0.00167922
0.00158662
0.00150158
0.00143532
0.00138284
0.00134136
0.00133129
0.00132924
-1.59814
-0.686431
-0.410461
-0.113399
0.0888618
0.264735
0.414033
0.565774
0.726919
0.80441
-0.556356
-0.116276
-0.0816768
0.119066
0.261345
0.388717
0.500128
0.597758
0.63197
0.586338
-0.136061
0.0967386
0.147039
0.28977
0.389171
0.479548
0.55443
0.610098
0.61631
0.627442
0.118769
0.277585
0.315382
0.42866
0.491556
0.556391
0.606109
0.641064
0.651937
0.674645
0.315552
0.425172
0.454574
0.533956
0.579072
0.625412
0.660389
0.686081
0.697126
0.727844
0.466567
0.542546
0.57303
0.622319
0.659999
0.692838
0.718973
0.740407
0.755559
0.783181
0.592684
0.646891
0.673555
0.704381
0.733996
0.759226
0.780365
0.800161
0.81555
0.841627
0.700551
0.739938
0.761944
0.78388
0.806088
0.826446
0.844425
0.862843
0.877889
0.901422
0.797556
0.827109
0.844767
0.860797
0.877762
0.894355
0.910187
0.927385
0.941034
0.963349
0.887346
0.908514
0.923911
0.937512
0.951492
0.965598
0.979229
0.99395
1.00553
1.02521
0.974135
0.990118
1.0042
1.01631
1.02848
1.04026
1.05147
1.06319
1.07084
1.08764
1.05993
1.07294
1.08681
1.09859
1.10924
1.11904
1.12782
1.13602
1.13962
1.15089
1.14952
1.16052
1.17405
1.18327
1.1907
1.19785
1.20505
1.21169
1.2127
1.22012
1.24805
1.25279
1.26081
1.26529
1.26855
1.27303
1.27903
1.28681
1.29063
1.30051
1.36139
1.34767
1.34021
1.33454
1.33185
1.33325
1.3398
1.35224
1.36694
1.39658
1.48214
1.42654
1.39564
1.37856
1.37044
1.37046
1.37909
1.3985
1.43058
1.49974
)
;

boundaryField
{
    wall-4
    {
        type            zeroGradient;
    }
    pressure-outlet-7
    {
        type            fixedValue;
        value           uniform 0;
    }
    velocity-inlet-6
    {
        type            zeroGradient;
    }
    velocity-inlet-5
    {
        type            zeroGradient;
    }
    frontAndBackPlanes
    {
        type            empty;
    }
}


// ************************************************************************* //
