/*--------------------------------*- C++ -*----------------------------------*\
| =========                 |                                                 |
| \\      /  F ield         | OpenFOAM: The Open Source CFD Toolbox           |
|  \\    /   O peration     | Version:  v2012                                 |
|   \\  /    A nd           | Website:  www.openfoam.com                      |
|    \\/     M anipulation  |                                                 |
\*---------------------------------------------------------------------------*/
FoamFile
{
    version     2.0;
    format      ascii;
    class       surfaceScalarField;
    location    "18";
    object      phi;
}
// * * * * * * * * * * * * * * * * * * * * * * * * * * * * * * * * * * * * * //

dimensions      [0 3 -1 0 0 0 0];
oriented        oriented;


internalField   nonuniform List<scalar> 
4262
(
0.107095
0.470893
0.0955658
0.705115
0.0693438
0.858525
0.0473911
1.02072
0.0312021
1.21471
0.0200301
1.44939
0.0123634
1.73353
0.00692904
2.07647
0.0030651
2.48911
-0.000136629
2.98549
-0.00341856
2.98557
-0.00733461
2.48916
-0.0127953
2.0765
-0.0204115
1.73348
-0.0315001
1.44931
-0.0476228
1.21464
-0.0695108
1.02065
-0.0956612
0.858453
-0.107149
0.705074
0.470839
0.112583
0.358311
0.134794
0.682904
0.119611
0.873708
0.0965342
1.04379
0.0728557
1.23838
0.0513023
1.47095
0.0336055
1.75123
0.0200878
2.08999
0.0091415
2.50005
-0.000789273
2.99542
-0.0106976
2.99548
-0.0214907
2.49995
-0.0347552
2.08976
-0.0522245
1.75095
-0.0736144
1.4707
-0.0971284
1.23815
-0.120068
1.04359
-0.135146
0.873532
-0.112772
0.6827
0.358067
0.0917528
0.266558
0.124343
0.650314
0.120481
0.87757
0.10423
1.06004
0.0853331
1.25728
0.0660501
1.49023
0.0473753
1.7699
0.0300514
2.10731
0.0143257
2.51578
-0.00128224
3.01103
-0.0167308
3.01093
-0.0321029
2.51532
-0.0491423
2.1068
-0.0675569
1.76936
-0.0866002
1.48974
-0.105332
1.25688
-0.121416
1.05968
-0.125032
0.877148
-0.0920807
0.649748
0.265986
0.0632782
0.20328
0.103638
0.609954
0.105579
0.875629
0.0947722
1.07085
0.0811054
1.27095
0.0666007
1.50473
0.0502888
1.78621
0.0331279
2.12447
0.0158886
2.53302
-0.00187572
3.0288
-0.0194565
3.02851
-0.0363128
2.53218
-0.0530388
2.12353
-0.0690351
1.78536
-0.0832152
1.50392
-0.0965118
1.27018
-0.106938
1.0701
-0.104562
0.874772
-0.0636708
0.608857
0.202316
0.0360693
0.16721
0.0772639
0.568759
0.0868061
0.866087
0.0801044
1.07755
0.0689427
1.28211
0.0576491
1.51603
0.0455136
1.79835
0.031509
2.13848
0.0154565
2.54907
-0.00254425
3.0468
-0.020371
3.04634
-0.036065
2.54788
-0.0495864
2.13705
-0.0610801
1.79685
-0.0716773
1.51452
-0.0822825
1.28079
-0.0884395
1.07626
-0.0783401
0.864672
-0.0364629
0.56698
0.165853
0.0181246
0.149086
0.0535218
0.533362
0.0669446
0.852664
0.0642087
1.08029
0.0559889
1.29033
0.0464453
1.52557
0.0364669
1.80833
0.0253505
2.14959
0.0123653
2.56206
-0.00317046
3.06233
-0.0184202
3.06159
-0.03082
2.56027
-0.041047
2.14728
-0.0502803
1.80609
-0.0593071
1.52355
-0.0670087
1.28849
-0.0691741
1.07842
-0.0549375
0.850436
-0.0185844
0.530627
0.147268
0.00921739
0.139868
0.0385661
0.504013
0.0533561
0.837874
0.0529007
1.08074
0.0464741
1.29676
0.0378359
1.53421
0.0286484
1.81752
0.018774
2.15947
0.00813986
2.57269
-0.00415528
3.07463
-0.0160561
3.07349
-0.0259145
2.57013
-0.0349281
2.15629
-0.0432669
1.81443
-0.0510619
1.53134
-0.0566502
1.29408
-0.0562565
1.07803
-0.0403273
0.834506
-0.00979637
0.500096
0.137472
0.00422238
0.135646
0.0256495
0.482586
0.039936
0.823588
0.0415886
1.07909
0.0373963
1.30095
0.0306965
1.54091
0.0229754
1.82524
0.0145967
2.16785
0.00537532
2.58191
-0.00531966
3.08532
-0.0156034
3.08377
-0.0239867
2.57852
-0.0312487
2.16355
-0.0374789
1.82066
-0.0430535
1.53692
-0.0460935
1.29712
-0.0432005
1.07514
-0.027503
0.818809
-0.00487472
0.477467
0.132597
0.000749898
0.134896
0.0126082
0.470727
0.0238828
0.812313
0.0270636
1.07591
0.0256297
1.30238
0.0220952
1.54444
0.0174494
1.82988
0.0110686
2.17423
0.00294956
2.59003
-0.00682689
3.0951
-0.0160378
3.09298
-0.0227704
2.58525
-0.027552
2.16833
-0.0306575
1.82376
-0.0326511
1.53891
-0.0325309
1.297
-0.0277899
1.0704
-0.0149095
0.805929
-0.00154787
0.464106
0.131049
-0.000917814
0.135814
0.00402912
0.465781
0.0116288
0.804714
0.0152362
1.0723
0.0157703
1.30185
0.014319
1.54589
0.0116516
1.83255
0.00704693
2.17883
0.000279269
2.5968
-0.0082863
3.10367
-0.0161075
3.1008
-0.021031
2.59017
-0.0236747
2.17098
-0.0248531
1.82494
-0.0241152
1.53817
-0.0217563
1.29464
-0.0163192
1.06496
-0.00682581
0.796435
-9.71189e-05
0.457377
0.130952
-0.000810597
0.136625
0.000925147
0.464045
0.00570713
0.799932
0.00904781
1.06896
0.010394
1.3005
0.00992932
1.54636
0.0074286
1.83505
0.00326582
2.183
-0.00276733
2.60283
-0.0102539
3.11115
-0.0169128
3.10746
-0.0211259
2.59439
-0.0234116
2.17326
-0.0232442
1.82477
-0.0213237
1.53625
-0.0177073
1.29102
-0.0120271
1.05928
-0.00459047
0.788999
-0.000443969
0.45323
0.130508
-0.000596776
0.137221
-0.000285999
0.463734
0.0032636
0.796382
0.00658479
1.06564
0.00840241
1.29868
0.00829146
1.54647
0.00570354
1.83764
0.000897613
2.1878
-0.00578725
2.60952
-0.0135195
3.11888
-0.0200998
3.11404
-0.0242459
2.59853
-0.0252846
2.1743
-0.0241017
1.82359
-0.021635
1.53378
-0.0169649
1.28635
-0.0108419
1.05316
-0.00440534
0.782562
-0.000973727
0.449799
0.129534
-0.00103512
0.138256
-0.00170264
0.464402
0.000478651
0.794201
0.00358498
1.06254
0.00597849
1.29629
0.00603418
1.54641
0.00352547
1.84015
-0.00147009
2.1928
-0.00856585
2.61661
-0.0167193
3.12704
-0.0235215
3.12085
-0.0273685
2.60238
-0.0279795
2.17491
-0.0267143
1.82232
-0.022805
1.52987
-0.0167461
1.28029
-0.00983697
1.04625
-0.00395054
0.776676
-0.00103568
0.446884
0.128499
-0.00154766
0.139804
-0.00341621
0.46627
-0.00280902
0.793593
0.000307705
1.05942
0.00258024
1.29402
0.00246628
1.54653
-0.000420908
1.84303
-0.00576057
2.19814
-0.0129778
2.62383
-0.0209732
3.13503
-0.027248
3.12712
-0.0303148
2.60545
-0.0306185
2.17522
-0.0283686
1.82007
-0.0231094
1.52462
-0.0161391
1.27332
-0.00891181
1.03902
-0.0035412
0.771305
-0.000949708
0.444292
0.127549
-0.00192367
0.141728
-0.00476737
0.469114
-0.00558646
0.794413
-0.00417621
1.05801
-0.00272586
1.29257
-0.00313652
1.54694
-0.00617199
1.84607
-0.0114913
2.20346
-0.0185122
2.63085
-0.0260474
3.14257
-0.0313798
3.13245
-0.033461
2.60753
-0.0327659
2.17452
-0.0296383
1.81695
-0.0240764
1.51905
-0.0170068
1.26625
-0.00981097
1.03182
-0.00445129
0.765945
-0.0013865
0.441228
0.126163
-0.00211016
0.143838
-0.00575825
0.472762
-0.00753492
0.796189
-0.00748686
1.05796
-0.0074345
1.29251
-0.00919228
1.5487
-0.0132609
1.85014
-0.0191578
2.20935
-0.0262137
2.63791
-0.0331446
3.1495
-0.037218
3.13653
-0.0377838
2.60809
-0.0356435
2.17238
-0.031117
1.81242
-0.0248304
1.51277
-0.0176149
1.25904
-0.0107176
1.02493
-0.00545764
0.760685
-0.00184274
0.437613
0.12432
-0.00277126
0.146609
-0.00758547
0.477576
-0.0109202
0.799524
-0.0125378
1.05958
-0.0140763
1.29405
-0.0168961
1.55152
-0.0215322
1.85477
-0.027844
2.21566
-0.0349387
2.645
-0.0412307
3.15579
-0.0439534
3.13925
-0.0427831
2.60692
-0.0392526
2.16885
-0.0337392
1.80691
-0.0270876
1.50612
-0.0199062
1.25185
-0.01295
1.01797
-0.0070157
0.754751
-0.00239016
0.432987
0.12193
-0.00334824
0.149957
-0.00917744
0.483405
-0.0140953
0.804442
-0.0176083
1.06309
-0.0213768
1.29782
-0.0262756
1.55641
-0.0324395
1.86094
-0.0394743
2.2227
-0.046493
2.65202
-0.0517633
3.16106
-0.0526339
3.14012
-0.0494591
2.60375
-0.0439695
2.16336
-0.0369071
1.79984
-0.0291605
1.49837
-0.0213894
1.24408
-0.0142293
1.01081
-0.00800413
0.748526
-0.00278256
0.427766
0.119147
-0.00467137
0.154629
-0.0128147
0.491549
-0.0200633
0.81169
-0.025564
1.06859
-0.0308479
1.30311
-0.0371764
1.56274
-0.0446446
1.86841
-0.05271
2.23076
-0.0600635
2.65937
-0.0644153
3.16541
-0.0632891
3.13899
-0.0579377
2.5984
-0.0504359
2.15586
-0.0420723
1.79148
-0.0336512
1.48995
-0.0256007
1.23603
-0.0178393
1.00305
-0.0102348
0.740921
-0.00349602
0.421027
0.115651
-0.0056947
0.160324
-0.0153951
0.501249
-0.0243985
0.820694
-0.0324384
1.07663
-0.040886
1.31155
-0.0501373
1.57199
-0.0599789
1.87825
-0.0696779
2.24046
-0.0775696
2.66727
-0.0809925
3.16884
-0.07764
3.13564
-0.0699351
2.59069
-0.0602128
2.14614
-0.0498702
1.78114
-0.039641
1.47972
-0.0299105
1.2263
-0.0207817
0.993921
-0.0120445
0.732184
-0.0041807
0.413163
0.11147
-0.00808972
0.168413
-0.0217024
0.514862
-0.033907
0.832898
-0.0441891
1.08691
-0.054512
1.32188
-0.0660405
1.58352
-0.0782238
1.89043
-0.0896303
2.25187
-0.0981039
2.67574
-0.100472
3.1712
-0.0946415
3.12981
-0.084085
2.58013
-0.0716372
2.13369
-0.0590599
1.76856
-0.0474189
1.46808
-0.0368588
1.21574
-0.0264885
0.98355
-0.0154804
0.721176
-0.00526767
0.40295
0.106203
-0.00987117
0.178284
-0.0260868
0.531077
-0.0415985
0.84841
-0.055879
1.10119
-0.0708516
1.33685
-0.0863628
1.59903
-0.101738
1.90581
-0.115377
2.26551
-0.124612
2.68497
-0.125743
3.17234
-0.117176
3.12124
-0.103603
2.56656
-0.0882918
2.11838
-0.0730053
1.75327
-0.0583628
1.45343
-0.0445459
1.20193
-0.0312698
0.970274
-0.0181109
0.708017
-0.00617519
0.391015
0.100027
-0.0149619
0.193246
-0.0379723
0.554088
-0.0580245
0.868462
-0.0756553
1.11882
-0.0938412
1.35503
-0.113015
1.61821
-0.131741
1.92453
-0.147314
2.28108
-0.156561
2.69422
-0.155676
3.17145
-0.143503
3.10907
-0.125946
2.549
-0.106688
2.09912
-0.0878655
1.73445
-0.0707384
1.43631
-0.0552343
1.18642
-0.0398831
0.954923
-0.0232639
0.691398
-0.0077319
0.375483
0.0922956
-0.0189356
0.212182
-0.048381
0.583533
-0.0757411
0.895822
-0.0996756
1.14276
-0.124666
1.38003
-0.14906
1.6426
-0.170975
1.94645
-0.187829
2.29794
-0.196347
2.70274
-0.192468
3.16757
-0.175893
3.0925
-0.154077
2.52719
-0.131173
2.07621
-0.109037
1.71232
-0.088118
1.41539
-0.068185
1.16649
-0.0480952
0.934833
-0.0274083
0.670711
-0.00880679
0.356881
0.0834888
-0.0334659
0.245648
-0.0742197
0.624287
-0.108336
0.929939
-0.138844
1.17327
-0.169537
1.41072
-0.197634
1.6707
-0.2214
1.97021
-0.238092
2.31463
-0.244239
2.70888
-0.235832
3.15916
-0.213924
3.07059
-0.187047
2.50031
-0.159132
2.0483
-0.132262
1.68545
-0.107394
1.39052
-0.0840688
1.14316
-0.0605274
0.911292
-0.0352855
0.645469
-0.0110057
0.332601
0.0724831
-0.0464377
0.292085
-0.110107
0.687957
-0.158822
0.978653
-0.19786
1.2123
-0.233564
1.44642
-0.263607
1.70074
-0.287087
1.99369
-0.300969
2.32851
-0.302036
2.70995
-0.286835
3.14396
-0.258036
3.04179
-0.225523
2.4678
-0.193141
2.01592
-0.162484
1.65479
-0.134034
1.36207
-0.106717
1.11585
-0.0771248
0.8817
-0.0419679
0.610312
-0.0117296
0.302363
0.0607535
-0.0302982
0.322384
-0.0829621
0.740621
-0.130434
1.02613
-0.174266
1.25614
-0.215237
1.48739
-0.254199
1.7397
-0.289288
2.02878
-0.317585
2.35681
-0.335114
2.72748
-0.335218
3.14407
-0.314625
3.0212
-0.281935
2.43511
-0.242747
1.97673
-0.200692
1.61273
-0.157615
1.31899
-0.114349
1.07258
-0.0707145
0.838066
-0.0315046
0.571102
-0.0066388
0.277497
0.0541147
-0.0062048
0.328588
-0.0326806
0.767096
-0.0682149
1.06166
-0.105626
1.29355
-0.142849
1.52462
-0.178151
1.775
-0.209653
2.06029
-0.234832
2.38199
-0.249341
2.74199
-0.246774
3.1415
-0.224113
2.99853
-0.189844
2.40084
-0.150679
1.93757
-0.110751
1.57281
-0.0723838
1.28063
-0.0371813
1.03738
-0.00870859
0.809593
0.0072535
0.55514
0.00645341
0.278297
0.0605681
0.00406783
0.324521
-0.0124174
0.783582
-0.0384904
1.08773
-0.0683339
1.32339
-0.0987767
1.55506
-0.12886
1.80509
-0.156555
2.08798
-0.178709
2.40414
-0.190946
2.75423
-0.18695
3.13751
-0.165198
2.97678
-0.135171
2.37081
-0.101956
1.90435
-0.068813
1.53966
-0.0382905
1.2501
-0.0119042
1.01099
0.00745751
0.790232
0.0139303
0.548667
0.00768755
0.28454
0.0682557
0.00504824
0.319472
-0.00447679
0.793107
-0.0243686
1.10762
-0.0486226
1.34765
-0.0731267
1.57956
-0.0984922
1.83045
-0.122374
2.11186
-0.141594
2.42336
-0.152052
2.76468
-0.148456
3.13391
-0.129896
2.95822
-0.104013
2.34493
-0.0767298
1.87707
-0.0504405
1.51337
-0.0261783
1.22584
-0.00523864
0.990052
0.00896736
0.776026
0.0124422
0.545192
0.00577266
0.29121
0.0740283
0.00697574
0.312497
0.00028246
0.7998
-0.0173246
1.12523
-0.0374872
1.36781
-0.0584495
1.60053
-0.0803828
1.85239
-0.101209
2.13269
-0.118369
2.44052
-0.128326
2.77464
-0.126445
3.13203
-0.110949
2.94273
-0.0894395
2.32342
-0.0663216
1.85395
-0.0438316
1.49088
-0.0231825
1.20519
-0.00636762
0.973237
0.00473722
0.764921
0.00678465
0.543145
0.0028694
0.295125
0.0768977
0.00646657
0.30603
0.00184582
0.804421
-0.0133256
1.1404
-0.0315362
1.38602
-0.050496
1.61949
-0.0699978
1.87189
-0.0887442
2.15144
-0.104648
2.45642
-0.114253
2.78425
-0.11269
3.13046
-0.0991055
2.92914
-0.0805603
2.30487
-0.0607142
1.8341
-0.0414506
1.47162
-0.0244805
1.18822
-0.0109373
0.959693
-0.00200629
0.75599
0.00141853
0.53972
0.000619574
0.295924
0.0775173
0.00459845
0.301432
0.00166249
0.807357
-0.0116509
1.15372
-0.0285435
1.40291
-0.0463963
1.63734
-0.0644411
1.88993
-0.0818373
2.16883
-0.0968504
2.47144
-0.106285
2.79368
-0.106535
3.13071
-0.0951863
2.91779
-0.0775813
2.28727
-0.0591455
1.81567
-0.0427571
1.45523
-0.0279531
1.17342
-0.0158687
0.947609
-0.00823116
0.748352
-0.00415094
0.53564
-0.00110121
0.292874
0.0764161
0.00267757
0.298754
0.000401454
0.809633
-0.011528
1.16565
-0.0272258
1.41861
-0.0442166
1.65433
-0.0614475
1.90716
-0.0781405
2.18553
-0.0928188
2.48611
-0.102891
2.80375
-0.104061
3.13188
-0.0936603
2.90739
-0.078722
2.27233
-0.0624261
1.79937
-0.04632
1.43913
-0.0326848
1.15978
-0.0217303
0.936654
-0.0127389
0.739361
-0.00663491
0.529536
-0.00205483
0.288294
0.0743613
0.000255639
0.298498
-0.00233664
0.812225
-0.0129079
1.17622
-0.0271771
1.43288
-0.0431718
1.67032
-0.0598482
1.92384
-0.0763306
2.20201
-0.0912086
2.50099
-0.102204
2.81475
-0.105035
3.13472
-0.0970635
2.89942
-0.0825179
2.25779
-0.0661995
1.78305
-0.051182
1.42411
-0.0377909
1.14639
-0.0259431
0.924807
-0.0166015
0.730019
-0.00876823
0.521703
-0.00265772
0.282184
0.0717035
-0.000599391
0.299098
-0.00522504
0.816851
-0.014731
1.18572
-0.0278233
1.44597
-0.0427862
1.68529
-0.0589351
1.93999
-0.0754473
2.21852
-0.0908193
2.51636
-0.102825
2.82675
-0.107405
3.1393
-0.100421
2.89244
-0.0867377
2.2441
-0.0713263
1.76764
-0.0553991
1.40818
-0.0410521
1.13204
-0.0286714
0.912426
-0.0184147
0.719762
-0.0100391
0.513327
-0.00321152
0.275356
0.068492
-0.0027067
0.301804
-0.00768843
0.821832
-0.0168071
1.19484
-0.0288163
1.45798
-0.0428944
1.69937
-0.0585461
1.95564
-0.0750908
2.23506
-0.09116
2.53243
-0.104832
2.84043
-0.112178
3.14664
-0.107697
2.88796
-0.0947393
2.23114
-0.07792
1.75082
-0.0625391
1.3928
-0.0480847
1.11759
-0.0356942
0.900036
-0.023909
0.707977
-0.0122095
0.501628
-0.00384824
0.266995
0.0646438
-0.00400036
0.305805
-0.00925406
0.827086
-0.0182177
1.2038
-0.0297786
1.46954
-0.0432459
1.71283
-0.0584431
1.97084
-0.0749947
2.25162
-0.0917798
2.54922
-0.106834
2.85548
-0.115648
3.15546
-0.113209
2.88552
-0.101721
2.21966
-0.0858094
1.73491
-0.0670783
1.37407
-0.0513503
1.10186
-0.0364862
0.885171
-0.0236733
0.695164
-0.0134384
0.491393
-0.00434987
0.257906
0.0602939
-0.00436049
0.310165
-0.0102047
0.83293
-0.0190291
1.21263
-0.0303539
1.48087
-0.0435187
1.726
-0.0584358
1.98576
-0.074967
2.26815
-0.0922807
2.56653
-0.108747
2.87195
-0.120786
3.1675
-0.12212
2.88685
-0.111935
2.20947
-0.0942828
1.71726
-0.0769225
1.35671
-0.0595056
1.08445
-0.0449117
0.870577
-0.0311754
0.681428
-0.0159218
0.476139
-0.00496257
0.246947
0.0553313
-0.00430428
0.31447
-0.0106428
0.839269
-0.0194576
1.22144
-0.0305421
1.49195
-0.0434862
1.73894
-0.0581885
2.00046
-0.0746779
2.28464
-0.0924635
2.58432
-0.11021
2.88969
-0.12447
3.18176
-0.127312
2.88969
-0.119134
2.20129
-0.104746
1.70287
-0.0844492
1.33641
-0.0636327
1.06363
-0.0448637
0.851808
-0.0288516
0.665416
-0.0160397
0.463327
-0.00499127
0.235898
0.0503401
-0.00426623
0.318736
-0.0109185
0.845921
-0.0195582
1.23008
-0.0303226
1.50271
-0.0430406
1.75166
-0.0575816
2.015
-0.0740876
2.30114
-0.0923873
2.60262
-0.111492
2.9088
-0.128588
3.19885
-0.135774
2.89688
-0.128984
2.1945
-0.111714
1.6856
-0.0913106
1.31601
-0.0708734
1.04319
-0.0535443
0.834479
-0.0366165
0.648488
-0.0185007
0.445211
-0.00502957
0.222427
0.0453105
-0.00425126
0.322987
-0.0109498
0.852619
-0.0193716
1.23851
-0.0297974
1.51314
-0.0422063
1.76407
-0.0565507
2.02934
-0.0730745
2.31767
-0.0917438
2.62129
-0.111707
2.92876
-0.130382
3.21753
-0.139952
2.90645
-0.136986
2.19154
-0.125608
1.67422
-0.104468
1.29487
-0.0792108
1.01793
-0.0511383
0.806407
-0.0297708
0.627121
-0.0152706
0.430711
-0.00378843
0.210945
0.041522
-0.00426091
0.327248
-0.0109486
0.859307
-0.0190572
1.24661
-0.0290988
1.52318
-0.041128
1.7761
-0.0552061
2.04342
-0.0716532
2.33411
-0.0905579
2.64019
-0.111498
2.9497
-0.132901
3.23893
-0.14753
2.92108
-0.148737
2.19274
-0.134751
1.66024
-0.113597
1.27371
-0.0859567
0.990294
-0.0595438
0.779994
-0.0348175
0.602394
-0.0137511
0.409645
-0.00290287
0.200097
0.0386192
-0.00415831
0.331406
-0.0106533
0.865802
-0.0184913
1.25445
-0.0281775
1.53287
-0.0398039
1.78772
-0.0535556
2.05717
-0.069841
2.3504
-0.0889135
2.65926
-0.110646
2.97143
-0.133844
3.26213
-0.150855
2.93809
-0.155334
2.19722
-0.149046
1.65395
-0.128822
1.25349
-0.0983834
0.959856
-0.0572506
0.738861
-0.0161783
0.561322
0.0106328
0.382834
0.0174257
0.193304
0.0560449
-0.00399032
0.335397
-0.0103718
0.872184
-0.0178991
1.26198
-0.0271818
1.54215
-0.0383689
1.79891
-0.0517165
2.07052
-0.0677163
2.3664
-0.0868059
2.67835
-0.109066
2.99369
-0.133652
3.28671
-0.153136
2.95757
-0.162455
2.20654
-0.157222
1.64872
-0.140116
1.23638
-0.109703
0.929443
-0.0705843
0.699742
-0.0158746
0.506612
0.0225387
0.34442
0.0130347
0.202808
0.0690796
-0.00372072
0.339117
-0.00982025
0.878283
-0.0170746
1.26923
-0.0259772
1.55105
-0.0367711
1.80971
-0.0497003
2.08345
-0.0653853
2.38208
-0.0843489
2.69732
-0.106986
3.01633
-0.133323
3.31305
-0.156272
2.98052
-0.168981
2.21925
-0.172365
1.6521
-0.160037
1.22405
-0.132635
0.902041
-0.0769858
0.644093
0.0170557
0.412571
0.128141
0.233335
0.158547
0.172402
0.227626
-0.00350639
0.342624
-0.00955566
0.884332
-0.0166941
1.27637
-0.0255091
1.55987
-0.0363919
1.82059
-0.0496409
2.0967
-0.0660586
2.3985
-0.0864338
2.71769
-0.11162
3.04152
-0.142082
3.34351
-0.17019
3.00863
-0.191114
2.24017
-0.197147
1.65814
-0.189602
1.21651
-0.16606
0.878499
-0.139057
0.61709
-0.158435
0.431949
-0.372404
0.447304
-0.90921
0.709208
0.88674
-1.56832
-0.00326274
0.345886
-0.00901145
0.890081
-0.0159537
1.28331
-0.0245733
1.56849
-0.0352934
1.83131
-0.0485403
2.10995
-0.0652098
2.41517
-0.0863036
2.73879
-0.113061
3.06827
-0.147023
3.37747
-0.181059
3.04267
-0.206831
2.26595
-0.232543
1.68385
-0.245742
1.22971
-0.254041
0.886798
-0.330269
0.693318
-0.68114
0.78282
-1.37785
1.14402
-1.99588
1.32723
1.2237
-2.33283
-0.00308915
0.348976
-0.00855841
0.89555
-0.0152208
1.28998
-0.0235796
1.57685
-0.0341085
1.84184
-0.0473088
2.12315
-0.0641782
2.43204
-0.0859542
2.76056
-0.11442
3.09674
-0.152013
3.41507
-0.192859
3.08351
-0.23046
2.30355
-0.258071
1.71146
-0.274778
1.24642
-0.363004
0.975024
-0.732817
1.06313
-1.47773
1.52773
-2.07173
1.73801
-2.32084
1.57635
1.34275
-2.43989
-0.00279997
0.351776
-0.00790096
0.900651
-0.0142965
1.29637
-0.0224004
1.58495
-0.0326943
1.85213
-0.0458139
2.13627
-0.0628196
2.44905
-0.0851531
2.7829
-0.114928
3.12651
-0.154943
3.45508
-0.199271
3.12784
-0.240755
2.34503
-0.289693
1.7604
-0.385257
1.34198
-0.692429
1.2822
-1.38848
1.75918
-1.99515
2.1344
-2.24388
1.98674
-2.36243
1.6949
1.41106
-2.43074
-0.00254163
0.354317
-0.00730376
0.905413
-0.0133554
1.30242
-0.0211338
1.59273
-0.031225
1.86222
-0.0442069
2.14925
-0.06126
2.4661
-0.0840722
2.80571
-0.115294
3.15774
-0.159738
3.49953
-0.215106
3.18321
-0.271716
2.40164
-0.328775
1.81746
-0.493081
1.50629
-1.04398
1.8331
-1.73883
2.45403
-2.08389
2.47946
-2.24191
2.14476
-2.32918
1.78216
1.47904
-2.39715
-0.00235116
0.356668
-0.00692251
0.909985
-0.0129495
1.30845
-0.0207357
1.60052
-0.0309822
1.87247
-0.0441176
2.16238
-0.0615637
2.48355
-0.0851131
2.82926
-0.11772
3.19034
-0.163941
3.54575
-0.219401
3.23867
-0.275193
2.45743
-0.372364
1.91463
-0.730962
1.86488
-1.43803
2.54017
-1.93919
2.95518
-2.1494
2.68968
-2.26102
2.25638
-2.3404
1.86154
1.54555
-2.40692
-0.00232482
0.358993
-0.00709829
0.914758
-0.0133922
1.31475
-0.0215182
1.60864
-0.0321963
1.88315
-0.0458481
2.17603
-0.0639509
2.50165
-0.0884456
2.85375
-0.122647
3.22454
-0.173315
3.59642
-0.238771
3.30412
-0.313825
2.53249
-0.489965
2.09077
-0.9912
2.36612
-1.62705
3.17602
-1.93109
3.25923
-2.08681
2.84539
-2.20711
2.37668
-2.30378
1.95821
1.61176
-2.36999
-0.00215837
0.361152
-0.00704356
0.919643
-0.013709
1.32141
-0.0222643
1.6172
-0.0333586
1.89424
-0.0475501
2.19023
-0.0663861
2.52048
-0.0919911
2.87936
-0.127884
3.26044
-0.179896
3.64843
-0.244995
3.36922
-0.333851
2.62134
-0.593836
2.35075
-1.20251
2.97479
-1.7183
3.69181
-1.93586
3.47678
-2.08671
2.99624
-2.22266
2.51263
-2.3443
2.07984
1.67656
-2.40909
-0.00202827
0.36318
-0.00713351
0.924749
-0.0141098
1.32839
-0.0230646
1.62615
-0.0346193
1.9058
-0.0493632
2.20497
-0.0688617
2.53998
-0.0953165
2.90581
-0.132465
3.29759
-0.188248
3.70421
-0.261568
3.44254
-0.380178
2.73995
-0.72387
2.69444
-1.34074
3.59166
-1.72897
4.08004
-1.91829
3.66611
-2.03545
3.1134
-2.13997
2.61715
-2.21847
2.15834
1.67319
-2.21509
-0.00170918
0.364889
-0.00681601
0.929855
-0.0141999
1.33577
-0.0236449
1.6356
-0.0356762
1.91783
-0.0509684
2.22026
-0.071123
2.56014
-0.0985878
2.93328
-0.137582
3.33658
-0.194408
3.76104
-0.272798
3.52093
-0.425314
2.89247
-0.839724
3.10885
-1.40065
4.15258
-1.68717
4.36656
-1.8644
3.84334
-1.97297
3.22197
-1.98589
2.63007
-1.93857
2.11102
1.67031
-1.93569
-0.00143667
0.366326
-0.00670411
0.935123
-0.0143193
1.34339
-0.0240899
1.64537
-0.0364551
1.93019
-0.0520227
2.23583
-0.072412
2.58053
-0.0999331
2.9608
-0.138306
3.37495
-0.194409
3.81714
-0.276146
3.60267
-0.462063
3.07839
-0.900346
3.54714
-1.36263
4.61487
-1.55911
4.56304
-1.64571
3.92994
-1.66561
3.24188
-1.53275
2.4972
-1.04736
1.62563
0.622945
-0.000869003
0.367195
-0.00580369
0.940058
-0.0138391
1.35142
-0.0242765
1.6558
-0.0374312
1.94335
-0.0540122
2.25241
-0.0757199
2.60223
-0.105095
2.99017
-0.147209
3.41707
-0.210102
3.88003
-0.309246
3.70181
-0.532175
3.30132
-1.02111
4.03607
-1.41667
5.01042
-1.53468
4.68106
-1.5466
3.94185
-1.46413
3.15941
-1.24058
2.27365
-0.672861
1.05791
-0.0499159
-0.000413192
0.367608
-0.00509218
0.944737
-0.0132311
1.35956
-0.0242121
1.66679
-0.0380287
1.95716
-0.0555475
2.26993
-0.0787261
2.62541
-0.110458
3.02191
-0.155617
3.46223
-0.22133
3.94575
-0.32742
3.8079
-0.593029
3.56693
-1.1172
4.56024
-1.42826
5.32148
-1.50909
4.76189
-1.50515
3.93791
-1.32049
2.97476
-0.832211
1.78537
-0.134273
0.359976
-0.184189
0.000792305
0.366816
-0.00305784
0.948587
-0.0116686
1.36817
-0.0232965
1.67841
-0.0377108
1.97158
-0.0561266
2.28835
-0.0804562
2.64974
-0.113363
3.05481
-0.16061
3.50947
-0.234042
4.01918
-0.364597
3.93846
-0.678662
3.88099
-1.19265
5.07423
-1.40605
5.53488
-1.44829
4.80413
-1.38858
3.8782
-1.11248
2.69866
-0.380223
1.05311
0.0320539
-0.0523008
-0.152135
0.00179516
0.36502
-0.000933197
0.951315
-0.00997394
1.37721
-0.0218318
1.69027
-0.0365863
1.98633
-0.0556302
2.30739
-0.0809627
2.67508
-0.115494
3.08934
-0.16525
3.55923
-0.243793
4.09772
-0.382663
4.07733
-0.727288
4.22562
-1.21384
5.56078
-1.36072
5.68176
-1.38043
4.82384
-1.23745
3.73522
-0.78649
2.2477
-0.1119
0.378522
0.0347443
-0.198945
-0.117391
0.0033649
0.361656
0.00176373
0.952916
-0.00681305
1.38579
-0.018854
1.70231
-0.0338966
2.00138
-0.0535515
2.32704
-0.0797507
2.70127
-0.115365
3.12496
-0.165831
3.60969
-0.248393
4.18028
-0.409598
4.23853
-0.789264
4.60528
-1.20795
5.97946
-1.29863
5.77244
-1.27943
4.80464
-1.03054
3.48633
-0.444403
1.66156
-0.0235238
-0.0423578
0.012498
-0.234967
-0.104893
0.00464924
0.357006
0.0041897
0.953376
-0.00323023
1.39321
-0.0147986
1.71388
-0.0297643
2.01634
-0.049573
2.34685
-0.0756114
2.72731
-0.110248
3.1596
-0.15948
3.65893
-0.245276
4.26608
-0.413929
4.40719
-0.80562
4.99697
-1.13279
6.30663
-1.19145
5.83111
-1.13092
4.74411
-0.841605
3.19702
-0.217356
1.03731
-0.0309959
-0.228718
-0.0122085
-0.253754
-0.117102
0.00712216
0.349884
0.00895402
0.951544
0.00280819
1.39935
-0.00826837
1.72496
-0.0232046
2.03128
-0.0427786
2.36643
-0.0682063
2.75274
-0.103538
3.19493
-0.153901
3.70929
-0.242481
4.35466
-0.421607
4.58631
-0.791751
5.36712
-1.03692
6.55181
-1.09041
5.8846
-0.949628
4.60332
-0.553202
2.80059
-0.0132935
0.497406
0.0282296
-0.270241
0.0171954
-0.24272
-0.0999061
0.00959501
0.340289
0.0141919
0.946947
0.00990042
1.40365
0.000716322
1.73414
-0.0142978
2.04629
-0.0328007
2.38493
-0.0567961
2.77674
-0.0907912
3.22892
-0.137503
3.756
-0.214619
4.43177
-0.395948
4.76764
-0.715758
5.68693
-0.888014
6.72406
-0.925516
5.9221
-0.779722
4.45753
-0.29366
2.31453
0.0668559
0.13689
0.0389349
-0.24232
0.0299952
-0.23378
-0.0699109
0.0134972
0.326792
0.0221445
0.9383
0.019963
1.40583
0.0110853
1.74302
-0.00236682
2.05974
-0.0178716
2.40043
-0.0391649
2.79803
-0.06849
3.25825
-0.109121
3.79663
-0.174156
4.49681
-0.342303
4.93579
-0.585872
5.93049
-0.715796
6.85399
-0.791589
5.99789
-0.749413
4.41535
-0.424226
1.98934
-0.3131
0.0257637
-0.225115
-0.330305
-0.106504
-0.352392
-0.176415
0.0171825
0.309609
0.0305372
0.924945
0.0318989
1.40447
0.0258367
1.74908
0.016005
2.06958
0.00250906
2.41393
-0.0161488
2.81669
-0.0411465
3.28324
-0.079225
3.83471
-0.127502
4.54509
-0.258883
5.06717
-0.406599
6.07821
-0.499722
6.94711
-0.591628
6.0898
-0.675261
4.49898
-0.679506
1.99359
-0.71618
0.0624375
-0.527528
-0.518957
-0.257502
-0.622418
-0.433917
0.0221708
0.287439
0.0419473
0.905169
0.0479493
1.39846
0.0455947
1.75144
0.0380644
2.07711
0.0277944
2.4242
0.0149972
2.82948
-0.00368173
3.30192
-0.0305413
3.86157
-0.0627974
4.57734
-0.101961
5.10633
-0.130867
6.10712
-0.180834
6.99708
-0.213469
6.12243
-0.268963
4.55448
-0.456543
2.18117
-0.736528
0.342422
-0.650358
-0.605127
-0.321227
-0.951548
-0.755144
0.0268186
0.26062
0.0544158
0.877572
0.0671389
1.38574
0.0694807
1.74909
0.0664398
2.08015
0.0620562
2.42858
0.0558624
2.83568
0.0486507
3.30914
0.0362741
3.87395
0.0282703
4.58535
0.0735852
5.06102
0.228871
5.95183
0.372093
6.85385
0.568467
5.92606
0.654236
4.46871
0.395221
2.44018
0.0154327
0.722211
-0.223722
-0.365972
-0.208838
-0.966433
-0.963982
0.0322686
0.228351
0.069815
0.840025
0.0901743
1.36538
0.098386
1.74088
0.10151
2.07702
0.103846
2.42625
0.106012
2.83351
0.110911
3.30424
0.118328
3.86653
0.15875
4.54492
0.27215
4.94762
0.685317
5.53866
1.05551
6.48366
1.42084
5.56073
1.60255
4.28699
1.33984
2.70289
0.931859
1.13019
0.504724
0.0611633
0.183832
-0.645541
-0.780149
0.0355919
0.19276
0.0847508
0.790866
0.11601
1.33412
0.132268
1.72462
0.143879
2.06541
0.154095
2.41603
0.167167
2.82044
0.183286
3.28812
0.211156
3.83866
0.2719
4.48418
0.485775
4.73374
1.03795
4.98649
1.47625
6.04536
1.78913
5.24786
1.92155
4.15458
1.72168
2.90276
1.2808
1.57107
0.830526
0.511441
0.379383
-0.194398
-0.400767
0.0387518
0.154008
0.100224
0.729394
0.144058
1.29029
0.171065
1.69762
0.192997
2.04348
0.210397
2.39863
0.234387
2.79645
0.261259
3.26125
0.299224
3.80069
0.342702
4.4407
0.578904
4.49754
1.1183
4.44709
1.55677
5.60689
1.7943
5.01033
1.89459
4.05429
1.75639
3.04095
1.37558
1.95188
0.890236
0.996784
0.371063
0.324775
-0.0297036
0.0386889
0.115319
0.112652
0.655431
0.172051
1.23089
0.212289
1.65738
0.247329
2.00844
0.278532
2.36743
0.317056
2.75793
0.352616
3.22569
0.384373
3.76894
0.390397
4.43468
0.491069
4.39687
0.849568
4.08859
1.31866
5.1378
1.49693
4.83205
1.55032
4.0009
1.43827
3.153
1.11932
2.27083
0.715935
1.40017
0.307259
0.733451
0.277555
0.0385272
0.0767917
0.124237
0.569721
0.203206
1.15192
0.261173
1.59941
0.311386
1.95823
0.359745
2.31907
0.413115
2.70456
0.457778
3.18102
0.508052
3.71866
0.52125
4.42148
0.488975
4.42915
0.582824
3.99474
1.00798
4.71265
1.12573
4.7143
1.10649
4.02014
0.987515
3.27197
0.762984
2.49536
0.470271
1.69288
0.1848
1.01892
0.462355
0.0368212
0.0399705
0.12727
0.479271
0.223402
1.05579
0.306154
1.51666
0.377763
1.88662
0.450732
2.2461
0.527625
2.62766
0.610482
3.09817
0.722276
3.60687
0.792387
4.35137
0.713581
4.50795
0.609976
4.09835
0.795127
4.5275
0.834606
4.67483
0.766292
4.08845
0.66226
3.37601
0.509769
2.64785
0.291932
1.91072
0.101501
1.20935
0.563856
0.032542
0.00742845
0.125919
0.385895
0.237066
0.944642
0.343155
1.41057
0.442973
1.7868
0.550672
2.1384
0.672112
2.50622
0.837941
2.93234
1.06271
3.3821
1.25875
4.15532
1.18208
4.58463
0.921996
4.35843
0.875384
4.57411
0.817087
4.73312
0.713576
4.19196
0.596977
3.4926
0.42313
2.8217
0.227606
2.10625
0.0672205
1.36974
0.631076
0.0202589
-0.0128305
0.0797958
0.326358
0.173412
0.851026
0.286541
1.29744
0.406788
1.66655
0.535187
2.01
0.683245
2.35816
0.881185
2.7344
1.11296
3.15033
1.2864
3.98188
1.20807
4.66296
0.845587
4.72091
0.642441
4.77726
0.538468
4.83709
0.447947
4.28248
0.327269
3.61328
0.179486
2.96948
0.0914873
2.19424
0.0210633
1.44016
0.65214
-0.00320991
-0.00962059
0.00433294
0.318815
0.0525289
0.80283
0.141246
1.20872
0.264555
1.54324
0.414909
1.85965
0.599489
2.17359
0.836205
2.49768
1.09703
2.8895
1.31946
3.75946
1.29078
4.69164
0.913785
5.0979
0.599984
5.09106
0.433488
5.00359
0.277141
4.43883
0.0944771
3.79595
-0.0203876
3.08435
-0.0293958
2.20325
-0.0245289
1.4353
0.627611
-0.0144741
0.00485355
-0.0257424
0.330083
-0.00777533
0.784863
0.0557745
1.14517
0.159496
1.43952
0.298974
1.72017
0.474094
1.99847
0.694492
2.27728
0.949922
2.63407
1.21405
3.49533
1.20056
4.70513
0.85958
5.43888
0.480872
5.46977
0.199659
5.2848
-0.0403316
4.67882
-0.202449
3.95806
-0.193401
3.0753
-0.119518
2.12937
-0.0691573
1.38494
0.558453
-0.0166226
0.0214761
-0.0403169
0.353778
-0.0400908
0.784637
-0.00217872
1.10726
0.0677748
1.36957
0.166135
1.62181
0.289279
1.87532
0.441155
2.12541
0.623746
2.45148
0.804778
3.3143
0.745708
4.7642
0.385649
5.79894
-0.0522465
5.90766
-0.342031
5.57459
-0.49384
4.83063
-0.486568
3.95079
-0.339207
2.92794
-0.20605
1.99621
-0.0999259
1.27881
0.458527
-0.0192354
0.0407115
-0.0531887
0.387731
-0.0654427
0.796891
-0.0562238
1.09804
-0.0291932
1.34254
0.0115523
1.58106
0.0575154