/*--------------------------------*- C++ -*----------------------------------*\
| =========                 |                                                 |
| \\      /  F ield         | OpenFOAM: The Open Source CFD Toolbox           |
|  \\    /   O peration     | Version:  v2012                                 |
|   \\  /    A nd           | Website:  www.openfoam.com                      |
|    \\/     M anipulation  |                                                 |
\*---------------------------------------------------------------------------*/
FoamFile
{
    version     2.0;
    format      ascii;
    class       volVectorField;
    location    "18";
    object      U;
}
// * * * * * * * * * * * * * * * * * * * * * * * * * * * * * * * * * * * * * //

dimensions      [0 1 -1 0 0 0 0];


internalField   nonuniform List<vector> 
2200
(
(0.878605 -0.0303699 0)
(1.00565 -0.0513015 0)
(1.00281 -0.0353642 0)
(0.99985 -0.0244291 0)
(0.999666 -0.016707 0)
(1.00003 -0.0108794 0)
(1.00021 -0.00691072 0)
(1.00025 -0.00408515 0)
(1.00023 -0.00209351 0)
(1.00016 -0.000642425 0)
(1.00011 0.000756583 0)
(1.00024 0.00228315 0)
(1.00027 0.00425842 0)
(1.00026 0.0071139 0)
(1.00007 0.01102 0)
(0.999696 0.016826 0)
(0.999888 0.0245116 0)
(1.00285 0.0354324 0)
(1.00565 0.0513209 0)
(0.878592 0.0303924 0)
(0.712397 -0.0327092 0)
(0.996706 -0.0628015 0)
(1.03386 -0.055972 0)
(1.02517 -0.0459607 0)
(1.01569 -0.0354044 0)
(1.00942 -0.0256068 0)
(1.00584 -0.0176009 0)
(1.00376 -0.0113052 0)
(1.00248 -0.00609745 0)
(1.00198 -0.00171325 0)
(1.00193 0.00241286 0)
(1.00245 0.00675036 0)
(1.00374 0.0118929 0)
(1.00573 0.0180144 0)
(1.00927 0.0259832 0)
(1.01554 0.0356954 0)
(1.02501 0.046188 0)
(1.03366 0.0561182 0)
(0.996571 0.0629505 0)
(0.712228 0.0327342 0)
(0.536235 -0.0238748 0)
(0.970305 -0.0567359 0)
(1.05657 -0.0543349 0)
(1.05281 -0.0486058 0)
(1.03694 -0.0401813 0)
(1.02464 -0.0317251 0)
(1.01571 -0.0235641 0)
(1.00996 -0.0159526 0)
(1.00672 -0.00901711 0)
(1.00543 -0.00263622 0)
(1.00542 0.00373251 0)
(1.00668 0.00998054 0)
(1.00975 0.0167489 0)
(1.01547 0.0242921 0)
(1.0244 0.0323012 0)
(1.0367 0.0406989 0)
(1.05257 0.0490517 0)
(1.05634 0.0547058 0)
(0.969832 0.0569591 0)
(0.535575 0.0239459 0)
(0.39348 -0.0133957 0)
(0.9123 -0.0459027 0)
(1.05795 -0.0465204 0)
(1.0696 -0.043823 0)
(1.05514 -0.0380036 0)
(1.03938 -0.0314934 0)
(1.02753 -0.024715 0)
(1.01918 -0.0173484 0)
(1.01402 -0.00997179 0)
(1.01161 -0.00275172 0)
(1.01149 0.00433905 0)
(1.01372 0.0114354 0)
(1.01882 0.0186298 0)
(1.02713 0.0258035 0)
(1.03895 0.0325038 0)
(1.05473 0.0388355 0)
(1.06908 0.0444965 0)
(1.05712 0.047039 0)
(0.911141 0.0461902 0)
(0.392126 0.0134755 0)
(0.311497 -0.00418296 0)
(0.849695 -0.0312676 0)
(1.04996 -0.038172 0)
(1.07884 -0.0363504 0)
(1.06776 -0.0321211 0)
(1.05169 -0.0270435 0)
(1.03814 -0.0220697 0)
(1.02761 -0.0163276 0)
(1.02064 -0.00980021 0)
(1.0171 -0.00253499 0)
(1.0169 0.00468982 0)
(1.02018 0.0118559 0)
(1.02699 0.018187 0)
(1.03743 0.0237333 0)
(1.05088 0.0283639 0)
(1.06681 0.0331882 0)
(1.07777 0.0371744 0)
(1.04861 0.0387771 0)
(0.847654 0.0315906 0)
(0.309492 0.00425031 0)
(0.270182 0.00034383 0)
(0.795168 -0.0190015 0)
(1.03566 -0.0292763 0)
(1.0834 -0.0294494 0)
(1.07629 -0.0260325 0)
(1.06037 -0.0216666 0)
(1.04704 -0.0176965 0)
(1.03618 -0.0132332 0)
(1.02815 -0.00810218 0)
(1.02344 -0.00186201 0)
(1.02326 0.00459382 0)
(1.02762 0.0105904 0)
(1.03527 0.0154073 0)
(1.04584 0.0194804 0)
(1.05902 0.0232191 0)
(1.07493 0.027359 0)
(1.08179 0.0305489 0)
(1.03352 0.0301062 0)
(0.792045 0.0193925 0)
(0.267469 -0.00026979 0)
(0.248162 0.00137676 0)
(0.747207 -0.0112018 0)
(1.01788 -0.0231021 0)
(1.08447 -0.0244239 0)
(1.08182 -0.0216924 0)
(1.06637 -0.0177992 0)
(1.05342 -0.0140747 0)
(1.04333 -0.0100814 0)
(1.03549 -0.00576056 0)
(1.03063 -0.000889264 0)
(1.03034 0.00445572 0)
(1.03465 0.00900597 0)
(1.04204 0.0129386 0)
(1.05187 0.0166251 0)
(1.06474 0.0199738 0)
(1.07995 0.0234823 0)
(1.08222 0.0259087 0)
(1.01452 0.0241701 0)
(0.74232 0.0116604 0)
(0.24452 -0.00126186 0)
(0.237014 0.0012001 0)
(0.708718 -0.00576876 0)
(0.998652 -0.0170089 0)
(1.08291 -0.0190043 0)
(1.0852 -0.0173861 0)
(1.07054 -0.0145131 0)
(1.05701 -0.0113582 0)
(1.04649 -0.00798762 0)
(1.03881 -0.00414118 0)
(1.03448 -7.39182e-05 0)
(1.03397 0.00460715 0)
(1.03745 0.00840666 0)
(1.04453 0.0118408 0)
(1.0548 0.0146196 0)
(1.06793 0.0171623 0)
(1.08236 0.0196119 0)
(1.07952 0.0207508 0)
(0.993814 0.0181537 0)
(0.702201 0.00626522 0)
(0.232393 -0.00105961 0)
(0.233407 0.000823462 0)
(0.684329 -0.00165194 0)
(0.982017 -0.00983443 0)
(1.07913 -0.0119474 0)
(1.08621 -0.0117795 0)
(1.07227 -0.0102901 0)
(1.05825 -0.00870424 0)
(1.04761 -0.00621003 0)
(1.04007 -0.00291997 0)
(1.03597 0.000794024 0)
(1.03533 0.00502278 0)
(1.03843 0.00833154 0)
(1.0453 0.0110128 0)
(1.05498 0.0126776 0)
(1.06897 0.0136498 0)
(1.08234 0.0145208 0)
(1.0743 0.0140439 0)
(0.975124 0.0112132 0)
(0.675846 0.00226028 0)
(0.227413 -0.000695194 0)
(0.233763 0.000547428 0)
(0.673035 0.000357175 0)
(0.969802 -0.00435473 0)
(1.0749 -0.00635361 0)
(1.08632 -0.00701638 0)
(1.0741 -0.00661126 0)
(1.06031 -0.00587733 0)
(1.04981 -0.00424497 0)
(1.04215 -0.00165328 0)
(1.03788 0.00171859 0)
(1.03709 0.0053585 0)
(1.03996 0.00813081 0)
(1.04653 0.00996535 0)
(1.05672 0.0107346 0)
(1.06971 0.0107574 0)
(1.08104 0.0102544 0)
(1.06852 0.00883349 0)
(0.961198 0.00602816 0)
(0.662244 0.000429204 0)
(0.226435 -0.000301877 0)
(0.235584 0.000189246 0)
(0.669134 0.000657535 0)
(0.963027 -0.00174423 0)
(1.07188 -0.00354321 0)
(1.08612 -0.00446515 0)
(1.07576 -0.00456779 0)
(1.06344 -0.00399217 0)
(1.05385 -0.00247587 0)
(1.04664 -0.000235463 0)
(1.04217 0.00283905 0)
(1.04088 0.00593896 0)
(1.04321 0.00836072 0)
(1.04905 0.00969108 0)
(1.05752 0.0106272 0)
(1.0691 0.00977 0)
(1.07904 0.00869606 0)
(1.0633 0.00686857 0)
(0.951562 0.00396774 0)
(0.655567 0.000354575 0)
(0.226087 2.12248e-05 0)
(0.236844 -5.92978e-06 0)
(0.668526 0.000680067 0)
(0.959127 -0.000601885 0)
(1.06911 -0.00244137 0)
(1.08515 -0.00354247 0)
(1.07601 -0.00375486 0)
(1.06527 -0.00336578 0)
(1.0567 -0.00153187 0)
(1.05027 0.000938992 0)
(1.04609 0.00426545 0)
(1.04455 0.00732922 0)
(1.0461 0.00979193 0)
(1.05056 0.0108962 0)
(1.05727 0.0109922 0)
(1.06792 0.0100647 0)
(1.0758 0.00866276 0)
(1.05785 0.00639226 0)
(0.943966 0.0033666 0)
(0.650821 0.000709961 0)
(0.225064 0.000157219 0)
(0.238268 0.000195213 0)
(0.668922 0.000880043 0)
(0.955203 0.000444788 0)
(1.06561 -0.00100343 0)
(1.08274 -0.00232922 0)
(1.07535 -0.00294319 0)
(1.06554 -0.00233749 0)
(1.05765 -0.000564915 0)
(1.0516 0.00204688 0)
(1.04744 0.00556797 0)
(1.04562 0.00874287 0)
(1.0466 0.011284 0)
(1.05018 0.0122356 0)
(1.05627 0.0120016 0)
(1.06505 0.0110391 0)
(1.07072 0.00889022 0)
(1.05099 0.0060279 0)
(0.936439 0.0028551 0)
(0.646166 0.000758955 0)
(0.223152 0.000181399 0)
(0.240363 0.000343216 0)
(0.670422 0.00118016 0)
(0.953397 0.00181274 0)
(1.06217 0.000396706 0)
(1.08055 -0.000799442 0)
(1.07507 -0.00146568 0)
(1.0666 -0.000680952 0)
(1.05946 0.00119358 0)
(1.05359 0.00394898 0)
(1.04912 0.00743004 0)
(1.04682 0.0104821 0)
(1.04718 0.0127467 0)
(1.04991 0.013407 0)
(1.05488 0.0130739 0)
(1.06153 0.0114924 0)
(1.06502 0.00876374 0)
(1.04365 0.00552139 0)
(0.929699 0.00242892 0)
(0.642423 0.00074115 0)
(0.221571 0.000179996 0)
(0.243597 0.000370826 0)
(0.674353 0.00152077 0)
(0.953785 0.00261945 0)
(1.05967 0.00208523 0)
(1.07904 0.00137344 0)
(1.07562 0.000918639 0)
(1.069 0.0017798 0)
(1.06282 0.00363264 0)
(1.0572 0.00639102 0)
(1.05231 0.00969535 0)
(1.04912 0.0125307 0)
(1.0484 0.014255 0)
(1.04983 0.01459 0)
(1.05334 0.0137869 0)
(1.05773 0.0119346 0)
(1.05901 0.00912458 0)
(1.0362 0.00584062 0)
(0.923048 0.00282249 0)
(0.638169 0.0010946 0)
(0.219487 0.000273513 0)
(0.24675 0.000369914 0)
(0.678377 0.00174985 0)
(0.955217 0.00316522 0)
(1.05925 0.00331396 0)
(1.0786 0.00305377 0)
(1.07652 0.00329873 0)
(1.07131 0.00468835 0)
(1.06592 0.00685279 0)
(1.06053 0.00975962 0)
(1.0553 0.0129042 0)
(1.05126 0.0153983 0)
(1.04947 0.0164058 0)
(1.04955 0.0161741 0)
(1.05156 0.014677 0)
(1.054 0.0123831 0)
(1.05337 0.0093348 0)
(1.02941 0.00610827 0)
(0.917006 0.00329386 0)
(0.633745 0.00147309 0)
(0.216827 0.000352539 0)
(0.251402 0.000496649 0)
(0.685698 0.0022799 0)
(0.958758 0.00423639 0)
(1.06013 0.00513597 0)
(1.07932 0.00564465 0)
(1.07821 0.00649727 0)
(1.07387 0.00812337 0)
(1.06884 0.0105316 0)
(1.06334 0.0135535 0)
(1.0575 0.0165693 0)
(1.05241 0.0186565 0)
(1.04928 0.0189655 0)
(1.04805 0.017944 0)
(1.04834 0.0160019 0)
(1.04918 0.0133643 0)
(1.0471 0.0102655 0)
(1.0224 0.00712904 0)
(0.910293 0.00421602 0)
(0.627605 0.00192003 0)
(0.213057 0.000443174 0)
(0.256051 0.000645428 0)
(0.691807 0.00269362 0)
(0.963097 0.00524619 0)
(1.06265 0.00680936 0)
(1.08152 0.00840146 0)
(1.08083 0.0101672 0)
(1.07684 0.012607 0)
(1.07181 0.015468 0)
(1.06581 0.0185899 0)
(1.05898 0.0213929 0)
(1.05255 0.0228339 0)
(1.04799 0.0223154 0)
(1.04553 0.0203718 0)
(1.0445 0.0177184 0)
(1.04412 0.0144361 0)
(1.04088 0.0110108 0)
(1.01526 0.00766356 0)
(0.902839 0.00473748 0)
(0.620636 0.00224301 0)
(0.20872 0.000515641 0)
(0.263687 0.000879733 0)
(0.703587 0.00375625 0)
(0.971502 0.00734107 0)
(1.06751 0.00998747 0)
(1.08545 0.0120857 0)
(1.08487 0.0146027 0)
(1.0809 0.0176088 0)
(1.07556 0.020984 0)
(1.0688 0.0244426 0)
(1.0607 0.0271295 0)
(1.05264 0.0279112 0)
(1.04645 0.0264741 0)
(1.04257 0.0235796 0)
(1.04019 0.0201569 0)
(1.03859 0.0164532 0)
(1.03437 0.0128392 0)
(1.00812 0.0094289 0)
(0.895122 0.00610027 0)
(0.612236 0.00284216 0)
(0.203263 0.000630741 0)
(0.27169 0.00116197 0)
(0.714655 0.00447514 0)
(0.980357 0.0088102 0)
(1.0743 0.0122615 0)
(1.09147 0.0158585 0)
(1.09053 0.0196674 0)
(1.08607 0.0237578 0)
(1.07985 0.0280422 0)
(1.07178 0.0319482 0)
(1.06184 0.0345922 0)
(1.0517 0.034655 0)
(1.0436 0.0321554 0)
(1.03816 0.0282981 0)
(1.03451 0.0239327 0)
(1.03186 0.0194598 0)
(1.02672 0.0151141 0)
(0.999144 0.0109225 0)
(0.884361 0.00711978 0)
(0.601218 0.00338654 0)
(0.196634 0.000768847 0)
(0.284546 0.00154092 0)
(0.733121 0.00647128 0)
(0.994106 0.0122718 0)
(1.08376 0.0170695 0)
(1.09928 0.0211506 0)
(1.09778 0.026012 0)
(1.09237 0.031183 0)
(1.08488 0.0363253 0)
(1.07499 0.0407704 0)
(1.06281 0.0433429 0)
(1.05028 0.0426278 0)
(1.04017 0.0389211 0)
(1.03316 0.0338317 0)
(1.02832 0.0283515 0)
(1.02473 0.0230257 0)
(1.01875 0.018207 0)
(0.990325 0.0137797 0)
(0.874192 0.00921449 0)
(0.589389 0.004317 0)
(0.188681 0.000927252 0)
(0.298955 0.00213709 0)
(0.753478 0.00755809 0)
(1.01016 0.0149566 0)
(1.09607 0.02107 0)
(1.11016 0.0273449 0)
(1.10723 0.0340383 0)
(1.10029 0.0406523 0)
(1.09071 0.0470156 0)
(1.07833 0.0521979 0)
(1.06326 0.0546631 0)
(1.04777 0.0530576 0)
(1.03521 0.0480444 0)
(1.02629 0.0416632 0)
(1.01998 0.0349513 0)
(1.01532 0.0285316 0)
(1.00826 0.0223186 0)
(0.977572 0.0163727 0)
(0.857516 0.0107727 0)
(0.571729 0.0050435 0)
(0.178489 0.00110919 0)
(0.32064 0.00305392 0)
(0.78186 0.0116996 0)
(1.03219 0.0209501 0)
(1.11245 0.0291334 0)
(1.12376 0.0362963 0)
(1.11907 0.0447048 0)
(1.10979 0.0529222 0)
(1.09736 0.0605265 0)
(1.08173 0.0661282 0)
(1.06307 0.068206 0)
(1.04421 0.0653658 0)
(1.02904 0.0586546 0)
(1.01822 0.0505342 0)
(1.01056 0.0421624 0)
(1.00476 0.0342367 0)
(0.996606 0.0272251 0)
(0.964597 0.0206495 0)
(0.843036 0.0138826 0)
(0.554996 0.00645768 0)
(0.167226 0.00129081 0)
(0.350534 0.00421428 0)
(0.82098 0.0142103 0)
(1.06032 0.027484 0)
(1.13281 0.037986 0)
(1.14152 0.0480243 0)
(1.13354 0.0593767 0)
(1.1209 0.0692603 0)
(1.10474 0.0779 0)
(1.08508 0.0836939 0)
(1.06233 0.0849841 0)
(1.03968 0.0804841 0)
(1.02152 0.0718336 0)
(1.00841 0.0619074 0)
(0.998997 0.0520528 0)
(0.991892 0.0427461 0)
(0.982048 0.0338009 0)
(0.946172 0.0252334 0)
(0.816839 0.0165467 0)
(0.526579 0.00738761 0)
(0.15174 0.00146804 0)
(0.38668 0.00829471 0)
(0.86723 0.02398 0)
(1.09626 0.0395533 0)
(1.15903 0.05303 0)
(1.16329 0.0664987 0)
(1.1506 0.0796125 0)
(1.13336 0.0907822 0)
(1.11235 0.0999544 0)
(1.08782 0.105225 0)
(1.06022 0.104981 0)
(1.03322 0.0983386 0)
(1.01181 0.0873971 0)
(0.996403 0.0752808 0)
(0.985201 0.0631939 0)
(0.976489 0.0518707 0)
(0.964877 0.0414555 0)
(0.926225 0.0312421 0)
(0.795527 0.0209889 0)
(0.503783 0.00971662 0)
(0.13778 0.00151431 0)
(0.471365 0.0118554 0)
(0.943241 0.033792 0)
(1.14404 0.0590568 0)
(1.19145 0.0761403 0)
(1.18908 0.0935478 7.05061e-35)
(1.16953 0.107961 -4.79588e-35)
(1.14618 0.11986 0)
(1.11939 0.128296 0)
(1.08939 0.131868 0)
(1.05663 0.129237 0)
(1.02541 0.119571 0)
(1.00073 0.105639 0)
(0.982693 0.0911235 0)
(0.969394 0.0773075 0)
(0.958777 0.0643322 0)
(0.94441 0.0521222 0)
(0.899967 0.0399879 0)
(0.755445 0.0265411 0)
(0.454341 0.0106928 0)
(0.11229 0.00135962 0)
(0.536039 0.0271143 -7.76525e-21)
(1.02977 0.0584732 5.21521e-21)
(1.19692 0.0914239 0)
(1.22736 0.112213 7.69576e-22)
(1.21547 0.13229 -6.23643e-22)
(1.18808 0.146331 5.05982e-35)
(1.15825 0.156947 0)
(1.12519 0.163537 4.72148e-21)
(1.08899 0.164842 -1.69444e-20)
(1.05023 0.15926 3.74916e-21)
(1.01359 0.146347 0)
(0.984563 0.12979 -1.23528e-20)
(0.963257 0.113075 -1.54799e-20)
(0.947061 0.0969948 2.72282e-20)
(0.933416 0.0820788 -2.19086e-20)
(0.914499 0.0675564 0)
(0.860501 0.051932 -8.4489e-21)
(0.703057 0.0351499 0)
(0.408719 0.0176991 -4.56925e-20)
(0.094982 0.00251748 5.42165e-20)
(0.561064 0.0543 -1.19651e-22)
(1.07848 0.10331 -4.62286e-20)
(1.23957 0.143514 1.21873e-20)
(1.26013 0.161514 1.78366e-20)
(1.23903 0.180349 -5.55598e-22)
(1.20458 0.192162 1.62755e-21)
(1.16813 0.200896 0)
(1.12843 0.205645 0)
(1.08575 0.204783 2.6467e-20)
(1.04085 0.196673 0)
(0.998696 0.181369 4.2309e-20)
(0.96488 0.162486 1.32525e-20)
(0.938721 0.143907 3.7462e-22)
(0.918083 0.126776 -3.05738e-20)
(0.900408 0.110937 0)
(0.877897 0.0966529 0)
(0.822852 0.0800208 -1.43157e-19)
(0.673795 0.0606472 3.59966e-19)
(0.397374 0.0317656 -2.13954e-19)
(0.0964205 0.00937436 -2.54883e-19)
(0.563067 0.0824092 8.05267e-20)
(1.10604 0.162023 -2.35232e-20)
(1.2711 0.207397 -6.20499e-21)
(1.28637 0.221835 -3.41669e-20)
(1.25799 0.23662 1.36208e-20)
(1.21743 0.244335 1.02289e-21)
(1.17463 0.250025 3.69313e-21)
(1.12868 0.251777 0)
(1.08006 0.247836 -5.46444e-20)
(1.02902 0.23659 6.12962e-20)
(0.980533 0.218213 -1.15662e-19)
(0.941208 0.19749 5.64766e-20)
(0.911843 0.178586 -4.18831e-20)
(0.888603 0.161569 9.16513e-20)
(0.868043 0.146215 0)
(0.843635 0.131793 -3.61243e-20)
(0.790955 0.116627 0)
(0.654882 0.0906572 2.06931e-19)
(0.399183 0.054569 -4.91193e-19)
(0.110042 0.0159006 3.08436e-19)
(0.549484 0.113844 -3.78533e-19)
(1.11905 0.222067 1.51237e-19)
(1.29014 0.276139 2.427e-20)
(1.30391 0.28698 0)
(1.27064 0.297596 1.87932e-20)
(1.2254 0.30077 -2.04243e-20)
(1.17731 0.302615 -3.77423e-21)
(1.12617 0.300449 0)
(1.07237 0.29276 3.85094e-20)
(1.01605 0.278038 -4.20373e-20)
(0.963573 0.257177 1.01496e-19)
(0.921551 0.235044 0)
(0.887732 0.214753 -8.81009e-20)
(0.860481 0.197591 4.8543e-20)
(0.838383 0.182766 1.32231e-19)
(0.81403 0.168526 -1.16293e-19)
(0.765269 0.152172 1.93124e-19)
(0.642157 0.123244 -4.29647e-19)
(0.406934 0.0777876 2.73005e-19)
(0.121133 0.0244718 -3.42987e-19)
(0.530491 0.138162 2.32874e-19)
(1.11893 0.277627 -1.71581e-19)
(1.29925 0.344039 7.5823e-20)
(1.31336 0.352453 -1.04384e-19)
(1.27662 0.359918 7.04495e-20)
(1.22811 0.358896 -1.1819e-20)
(1.17614 0.356715 3.71106e-21)
(1.12092 0.350425 -2.41101e-20)
(1.0626 0.338969 -3.81452e-20)
(1.00136 0.320925 -9.01199e-20)
(0.943463 0.296975 -2.1889e-19)
(0.896097 0.272195 -7.38724e-20)
(0.861865 0.251521 2.80834e-21)
(0.835711 0.233612 -1.74571e-19)
(0.813418 0.218796 -6.29945e-21)
(0.79005 0.204141 1.70496e-19)
(0.745673 0.18729 -5.30377e-20)
(0.633157 0.155711 -3.11726e-20)
(0.410313 0.100956 0)
(0.126994 0.0323694 7.32923e-19)
(0.510622 0.160227 0)
(1.11005 0.329304 5.29831e-20)
(1.30085 0.408527 0)
(1.31647 0.416334 -1.21206e-20)
(1.27712 0.421805 -8.55064e-20)
(1.22633 0.41686 1.87337e-20)
(1.17147 0.410833 3.50017e-22)
(1.11289 0.400617 4.37577e-20)
(1.05068 0.385399 -2.30171e-20)
(0.98553 0.363542 3.94101e-20)
(0.925259 0.335764 1.18008e-19)
(0.878429 0.309685 1.63605e-19)
(0.841772 0.287041 -1.0219e-19)
(0.812812 0.268002 1.89103e-19)
(0.790409 0.251948 -1.51965e-19)
(0.768419 0.23864 0)
(0.727571 0.22008 -4.06375e-19)
(0.62296 0.187055 5.46331e-19)
(0.40903 0.121581 4.14235e-20)
(0.128171 0.0393455 -7.72722e-19)
(0.493779 0.180992 -5.73339e-21)
(1.0991 0.378755 -1.3996e-19)
(1.29706 0.469867 -4.18197e-19)
(1.31405 0.477579 2.30785e-19)
(1.27263 0.481641 -5.08308e-20)
(1.22052 0.473321 2.78684e-20)
(1.16363 0.46391 -1.22029e-20)
(1.10258 0.450079 -2.42713e-21)
(1.03754 0.431206 -7.9669e-20)
(0.969741 0.405535 9.74604e-22)
(0.906826 0.375268 -1.28333e-19)
(0.856392 0.3453 -1.74071e-19)
(0.820096 0.320822 1.15267e-19)
(0.793039 0.300742 -6.79756e-20)
(0.770255 0.284705 1.65412e-19)
(0.747779 0.270084 0)
(0.709083 0.250343 -2.51737e-19)
(0.609096 0.214012 3.72422e-19)
(0.401279 0.140141 7.14025e-19)
(0.12592 0.0442748 -8.36877e-19)
(0.478827 0.199547 -6.87345e-19)
(1.08467 0.424765 3.47164e-19)
(1.28954 0.528072 2.69324e-19)
(1.30792 0.535953 -2.50141e-19)
(1.26493 0.538765 1.11745e-20)
(1.21195 0.52744 7.4345e-20)
(1.1535 0.515177 9.89558e-23)
(1.09049 0.498096 -1.60075e-20)
(1.02308 0.475855 -4.94755e-20)
(0.952593 0.446793 8.73021e-20)
(0.886621 0.411969 1.2075e-19)
(0.83543 0.379564 2.72752e-19)
(0.797554 0.353249 0)
(0.768283 0.331415 5.42008e-21)
(0.746303 0.312805 -4.60186e-19)
(0.726447 0.29917 1.05641e-19)
(0.691618 0.278869 5.40491e-19)
(0.595338 0.237452 -1.58359e-19)
(0.389753 0.154967 3.38715e-19)
(0.121501 0.0482181 -2.79899e-20)
(0.468872 0.21811 6.43008e-21)
(1.07154 0.469167 3.21161e-19)
(1.27952 0.583768 2.04299e-19)
(1.29885 0.59159 -4.45483e-19)
(1.25457 0.592839 2.84434e-19)
(1.20108 0.578812 -9.13864e-20)
(1.14148 0.564188 -3.59487e-21)
(1.07699 0.544332 3.22188e-20)
(1.00766 0.519173 8.64323e-20)
(0.934884 0.486779 -1.13128e-19)
(0.867475 0.449066 0)
(0.815468 0.41419 -1.07916e-19)
(0.777493 0.384683 1.23896e-19)
(0.750107 0.361517 1.6749e-19)
(0.727186 0.342263 -9.6059e-20)
(0.704891 0.324874 -2.43067e-19)
(0.668706 0.301665 -7.39401e-20)
(0.575318 0.256881 -1.21946e-21)
(0.376454 0.166499 0)
(0.11569 0.0514208 0)
(0.459857 0.234262 -3.39314e-19)
(1.05756 0.510389 0)
(1.26789 0.636052 2.34027e-19)
(1.28821 0.644548 -1.07773e-19)
(1.24296 0.64416 -2.96033e-19)
(1.18897 0.627509 8.1626e-20)
(1.12827 0.610787 -9.78734e-21)
(1.06246 0.588493 -1.3183e-20)
(0.991526 0.560765 5.27278e-20)
(0.916759 0.525082 -4.74224e-20)
(0.846556 0.483829 6.76079e-20)
(0.790729 0.44372 3.36785e-19)
(0.750257 0.411502 1.32568e-20)
(0.71985 0.384912 -1.70762e-19)
(0.70025 0.363668 3.30831e-19)
(0.683211 0.3475 4.45872e-21)
(0.651904 0.323731 7.91076e-20)
(0.559953 0.275081 -3.85702e-19)
(0.361935 0.176076 3.91278e-19)
(0.109216 0.0534112 -4.66932e-19)
(0.453558 0.254014 2.83414e-23)
(1.04501 0.550081 0)
(1.25541 0.685213 0)
(1.27635 0.694687 1.00625e-19)
(1.23023 0.692749 1.15921e-19)
(1.17583 0.673654 -6.83579e-20)
(1.11417 0.654983 4.54978e-20)
(1.04722 0.630539 0)
(0.974665 0.600523 -8.73033e-20)
(0.897309 0.562345 1.65555e-19)
(0.82407 0.517985 2.07244e-19)
(0.769244 0.476238 -1.27221e-19)
(0.731958 0.44159 -1.59905e-19)
(0.706133 0.414175 3.78463e-19)
(0.682165 0.391103 -1.17008e-19)
(0.659882 0.368312 -1.42256e-19)
(0.625032 0.342267 -8.71998e-20)
(0.535635 0.287943 -4.18548e-19)
(0.345987 0.183154 5.85229e-20)
(0.101794 0.0544713 5.07447e-19)
(0.449936 0.272959 -1.35567e-19)
(1.0332 0.587226 -2.13717e-19)
(1.24234 0.731058 2.3779e-20)
(1.2638 0.742027 1.44971e-22)
(1.21711 0.738884 3.8412e-20)
(1.16234 0.717495 -1.82226e-19)
(1.09975 0.696939 0)
(1.03166 0.670532 1.20698e-20)
(0.957556 0.63853 -9.51731e-21)
(0.8784 0.597966 2.59652e-19)
(0.803943 0.550181 -5.2961e-20)
(0.745719 0.503952 5.79241e-20)
(0.702075 0.464334 0)
(0.669823 0.431858 -2.06782e-19)
(0.652161 0.40483 2.58285e-19)
(0.637098 0.387472 0)
(0.607893 0.356632 -1.91346e-19)
(0.517581 0.300999 5.59324e-19)
(0.329064 0.188168 6.67425e-20)
(0.0938635 0.0542926 -6.29121e-19)
(0.447785 0.290037 -3.0077e-19)
(1.02246 0.622407 3.85483e-19)
(1.22907 0.773819 0)
(1.25069 0.786246 2.50461e-19)
(1.20351 0.782223 0)
(1.14856 0.759018 1.71064e-19)
(1.08525 0.736807 0)
(1.01622 0.70863 0)
(0.940902 0.674861 -3.08236e-20)
(0.859732 0.632433 -2.53672e-19)
(0.782447 0.582755 -3.85202e-19)
(0.721671 0.534265 7.36654e-20)
(0.681379 0.492926 2.7623e-19)
(0.656303 0.458544 2.32982e-19)
(0.633921 0.432381 -8.28838e-19)
(0.612451 0.402228 -3.4345e-19)
(0.577949 0.372386 1.9955e-19)
(0.491295 0.308758 0)
(0.31071 0.190817 5.77943e-19)
(0.0851235 0.0530319 -6.8297e-19)
(0.446119 0.305796 3.31821e-19)
(1.01196 0.655273 -4.23596e-19)
(1.21575 0.813651 0)
(1.23745 0.827647 -1.01211e-20)
(1.18998 0.822985 -1.03043e-19)
(1.13492 0.798249 0)
(1.07109 0.774618 -1.4788e-20)
(1.00134 0.744886 1.89229e-20)
(0.924888 0.70962 -3.65983e-20)
(0.841693 0.665472 2.42104e-20)
(0.761294 0.612882 0)
(0.69865 0.560186 2.93262e-19)
(0.653314 0.514195 3.80398e-21)
(0.618305 0.475097 1.2666e-19)
(0.599529 0.44032 1.52864e-19)
(0.586665 0.416868 0)
(0.559264 0.379959 -3.38124e-19)
(0.471061 0.315232 6.62782e-19)
(0.29178 0.191164 -7.06698e-19)
(0.0765349 0.0505722 1.48419e-18)
(0.444577 0.320832 0)
(1.00218 0.686771 0)
(1.20267 0.850924 -2.32101e-19)
(1.22407 0.866167 0)
(1.17628 0.8609 0)
(1.12133 0.835042 2.45525e-19)
(1.05719 0.810296 -1.86607e-20)
(0.986822 0.779288 1.67326e-20)
(0.90907 0.742753 -1.51071e-21)
(0.823529 0.697449 0)
(0.740473 0.643767 -6.19824e-20)
(0.674996 0.589247 -2.43379e-19)
(0.628162 0.538919 -3.06624e-19)
(0.601955 0.496379 -1.27748e-19)
(0.580407 0.46216 1.68558e-19)
(0.560194 0.427579 -4.00647e-19)
(0.527656 0.391734 7.32505e-19)
(0.442005 0.317924 7.9356e-21)
(0.2719 0.189159 -6.84032e-19)
(0.0677566 0.0473348 -1.01583e-19)
(0.44297 0.335467 0)
(0.992616 0.716336 -3.29525e-19)
(1.18988 0.885734 2.59393e-19)
(1.21104 0.902274 0)
(1.16302 0.896407 0)
(1.1081 0.869505 -5.42427e-19)
(1.04366 0.843815 0)
(0.972771 0.8118 0)
(0.89406 0.774233 -5.80327e-20)
(0.80717 0.727992 4.83256e-20)
(0.721863 0.67208 -4.89876e-19)
(0.651477 0.61385 0)
(0.601466 0.56234 -3.32764e-19)
(0.561532 0.514073 1.17082e-20)
(0.542314 0.47007 -5.3847e-19)
(0.53142 0.437771 2.17297e-19)
(0.505843 0.388865 4.17829e-21)
(0.421794 0.316692 -7.85179e-19)
(0.253566 0.185052 3.7237e-19)
(0.0612557 0.0439125 1.08682e-19)
(0.441413 0.349631 0)
(0.983924 0.744809 -3.88711e-19)
(1.17749 0.918536 2.7562e-19)
(1.19809 0.936007 5.79224e-19)
(1.14981 0.929436 1.17721e-19)
(1.09502 0.901647 -8.20979e-20)
(1.03044 0.875196 5.1273e-20)
(0.959171 0.842375 -1.02688e-19)
(0.879563 0.80396 6.20783e-20)
(0.790513 0.757093 2.88789e-19)
(0.701428 0.701059 4.06215e-19)
(0.627444 0.643766 7.86905e-20)
(0.572351 0.587811 4.83598e-19)
(0.542609 0.534957 3.15186e-19)
(0.518829 0.490691 3.89027e-19)
(0.499872 0.438788 -2.43849e-19)
(0.471538 0.396411 -2.90204e-19)
(0.391923 0.312587 3.42e-19)
(0.232134 0.176357 -2.02361e-19)
(0.0562063 0.0413081 3.55633e-19)
(0.439829 0.363242 5.12951e-19)
(0.975302 0.771106 6.17156e-19)
(1.16547 0.949043 1.5108e-19)
(1.18573 0.967641 1.59195e-20)
(1.13728 0.96044 -4.08625e-19)
(1.08254 0.931755 1.57042e-19)
(1.01774 0.90458 -5.85312e-20)
(0.946155 0.871088 -2.10914e-20)
(0.865799 0.832228 -5.02215e-20)
(0.77525 0.785214 -3.23671e-19)
(0.683513 0.728965 2.39575e-20)
(0.604883 0.669063 0)
(0.547125 0.610743 0)
(0.498116 0.554088 -1.59883e-19)
(0.473326 0.49391 -6.39529e-19)
(0.463468 0.44723 5.29125e-19)
(0.44553 0.377064 3.24949e-19)
(0.377032 0.292306 0)
(0.232058 0.155222 6.45469e-19)
(0.0509221 0.0241925 -3.8642e-19)
(0.438358 0.376036 -2.74003e-19)
(0.967525 0.79645 2.36301e-19)
(1.1539 0.977861 -3.37399e-19)
(1.17354 0.9972 -3.63718e-19)
(1.12496 0.98932 -1.61105e-19)
(1.07041 0.959879 3.77049e-20)
(1.0056 0.932103 0)
(0.933851 0.898082 1.48195e-19)
(0.852787 0.858902 1.01455e-20)
(0.76084 0.811849 0)
(0.667368 0.755959 0)
(0.58652 0.696664 5.52086e-20)
(0.519016 0.636494 8.54042e-20)
(0.477852 0.576153 -1.72213e-19)
(0.44611 0.518537 4.62584e-19)
(0.421304 0.443766 -5.82295e-19)
(0.398292 0.374203 -7.00503e-19)
(0.350993 0.270447 6.2262e-19)
(0.25175 0.165032 -2.33031e-19)
(0.130161 0.0986425 1.3351e-19)
(0.436631 0.387976 3.16153e-19)
(0.95954 0.819436 0)
(1.14269 1.00445 0)
(1.16202 1.02481 -1.22561e-19)
(1.11344 1.01642 9.91952e-20)
(1.05904 0.986238 -2.054e-20)
(0.994168 0.957894 -2.22892e-19)
(0.922283 0.923461 -2.27344e-19)
(0.84069 0.88403 3.90218e-20)
(0.747406 0.837216 -2.62704e-20)
(0.649792 0.781639 6.40476e-20)
(0.561157 0.721853 -4.51033e-19)
(0.494382 0.662552 -4.99731e-19)
(0.43076 0.600527 -9.16999e-20)
(0.389272 0.526031 0)
(0.367494 0.457901 -1.3373e-20)
(0.351689 0.330827 3.84306e-19)
(0.315777 0.178132 -6.54185e-19)
(0.281868 0.00966611 4.83868e-19)
(0.0857518 -0.0780638 3.86296e-19)
(0.434976 0.399206 -6.89326e-19)
(0.952313 0.84179 -2.96598e-19)
(1.13187 1.02973 5.98993e-21)
(1.15061 1.05074 1.55847e-19)
(1.10199 1.04185 0)
(1.04787 1.01119 4.66066e-19)
(0.983072 0.982498 2.77833e-19)
(0.911083 0.947804 -4.55734e-20)
(0.828938 0.908405 -6.00956e-21)
(0.734337 0.862032 -2.45613e-20)
(0.635825 0.808069 2.2813e-20)
(0.547645 0.751916 3.98852e-19)
(0.465778 0.692519 4.8871e-19)
(0.410434 0.625614 8.80968e-20)
(0.360904 0.564174 4.88955e-19)
(0.305385 0.459947 0)
(0.213304 0.335681 0)
(0.0644721 0.315538 4.85179e-19)
(-0.0582261 0.632428 -3.31508e-20)
(-0.0013561 1.48146 -6.25304e-19)
(0.432853 0.409809 3.74951e-19)
(0.944793 0.861999 8.89209e-19)
(1.12133 1.05317 -1.33614e-18)
(1.13975 1.07527 8.05549e-19)
(1.09118 1.06616 -9.44354e-20)
(1.03721 1.03514 6.07726e-19)
(0.972402 1.00629 0)
(0.900339 0.971592 2.34805e-19)
(0.817796 0.93256 0)
(0.722239 0.887038 2.21511e-19)
(0.619805 0.8343 -3.65672e-20)
(0.523369 0.778227 4.10009e-20)
(0.446623 0.723788 5.38984e-19)
(0.360395 0.668329 -2.00312e-19)
(0.275694 0.589192 -2.56946e-19)
(0.209031 0.526703 0)
(0.112228 0.612343 0)
(0.0470512 1.2182 0)
(0.0828177 2.41055 -2.73217e-19)
(0.115098 2.88508 -1.69347e-19)
(0.430794 0.420147 0)
(0.938078 0.881814 0)
(1.1112 1.0756 4.77969e-19)
(1.12903 1.09836 -6.71493e-19)
(1.08041 1.08903 4.6139e-19)
(1.02672 1.05792 -5.57065e-19)
(0.961987 1.0291 -3.22084e-20)
(0.889966 0.994679 2.50779e-20)
(0.807002 0.956314 4.40341e-21)
(0.710242 0.912305 -2.51459e-19)
(0.606097 0.862672 5.48541e-20)
(0.507715 0.814008 3.70898e-19)
(0.410519 0.761405 -5.30775e-19)
(0.339811 0.696546 -6.23823e-19)
(0.277111 0.65407 2.18267e-19)
(0.213157 0.768905 0)
(0.153828 1.46746 3.15563e-19)
(0.154006 2.65782 3.56949e-19)
(0.157199 3.07616 -3.99466e-19)
(0.148253 3.21744 4.45556e-19)
(0.428388 0.429346 0)
(0.931032 0.899431 7.2231e-19)
(1.10135 1.09627 -1.23842e-19)
(1.11892 1.12016 8.44668e-19)
(1.07036 1.11082 -4.84298e-19)
(1.01682 1.07964 0)
(0.952137 1.05103 0)
(0.880101 1.01697 0)
(0.796943 0.979441 -8.62442e-20)
(0.6996 0.936703 1.09812e-21)
(0.59458 0.888147 0)
(0.494747 0.838887 -3.61457e-19)
(0.409389 0.79888 0)
(0.301198 0.755818 4.43454e-19)
(0.221396 0.835208 -2.86187e-19)
(0.178489 1.42722 -2.40923e-19)
(0.189216 2.64876 -5.95053e-19)
(0.208287 3.12454 -2.9538e-19)
(0.197113 3.27437 -3.34567e-19)
(0.181806 3.31615 2.96564e-19)
(0.426185 0.438053 -2.44054e-19)
(0.924777 0.916808 1.47002e-20)
(1.09196 1.11614 -1.33411e-19)
(1.109 1.14069 -6.76033e-19)
(1.06036 1.13133 0)
(1.0071 1.10033 0)
(0.942497 1.07204 0)
(0.870658 1.03855 -1.6276e-20)
(0.787311 1.00219 9.93829e-20)
(0.689391 0.961828 0)
(0.581341 0.918832 0)
(0.475108 0.88047 0)
(0.369632 0.839905 0)
(0.305451 0.839307 2.88144e-19)
(0.295218 1.17639 7.52588e-19)
(0.287185 2.30962 2.35846e-19)
(0.299279 3.07809 4.24151e-19)
(0.290272 3.29523 -2.63218e-19)
(0.238069 3.36539 9.73387e-20)
(0.20329 3.37841 0)
(0.423628 0.44599 2.47277e-19)
(0.917908 0.932434 -1.55721e-18)
(1.08258 1.13488 -4.40552e-19)
(1.09946 1.16064 -1.07612e-19)
(1.05091 1.15144 1.23586e-19)
(0.997786 1.12054 -8.7306e-19)
(0.933278 1.09266 5.92764e-20)
(0.861514 1.05984 4.13582e-19)
(0.778225 1.02473 0)
(0.679984 0.986192 -1.4014e-20)
(0.573002 0.943703 1.27485e-20)
(0.471057 0.903736 0)
(0.387832 0.880504 0)
(0.33621 1.00488 -3.56299e-19)
(0.308895 1.80901 -5.98412e-21)
(0.304939 2.91546 -1.19742e-19)
(0.323035 3.29767 1.86701e-19)
(0.295385 3.40503 5.1584e-20)
(0.226284 3.43272 1.26048e-19)
(0.199374 3.44128 -6.46551e-20)
(0.420945 0.454232 4.76316e-19)
(0.911244 0.949507 1.48915e-18)
(1.07284 1.15459 5.41718e-19)
(1.08928 1.18095 0)
(1.04073 1.17175 0)
(0.987986 1.14106 6.68872e-19)
(0.923715 1.11356 -4.14669e-19)
(0.852479 1.08135 -3.80084e-19)
(0.769469 1.04748 -1.5277e-20)
(0.671714 1.01154 1.55482e-20)
(0.562439 0.976192 -2.43543e-19)
(0.454196 0.946879 0)
(0.374502 0.959518 0)
(0.354681 1.32322 -1.92292e-19)
(0.373878 2.40457 -2.52484e-19)
(0.415673 3.19721 0)
(0.443933 3.39204 1.03428e-19)
(0.373099 3.46033 2.24039e-19)
(0.294802 3.50514 -5.00971e-19)
(0.268113 3.53119 2.8961e-19)
(0.417375 0.462279 -9.03281e-19)
(0.903001 0.965927 -7.08407e-19)
(1.0621 1.17459 0)
(1.07857 1.20218 0)
(1.03029 1.19307 0)
(0.977831 1.16228 0)
(0.91387 1.13502 4.43006e-19)
(0.842965 1.10337 -4.88512e-19)
(0.760283 1.07079 0)
(0.662603 1.03693 -8.4525e-21)
(0.556838 1.00218 3.95038e-19)
(0.456763 0.976328 2.12226e-20)
(0.404555 1.05928 3.67231e-20)
(0.420759 1.69647 2.7779e-19)
(0.448584 2.86018 -6.64096e-20)
(0.484449 3.33338 0)
(0.466096 3.4702 -8.3921e-20)
(0.372214 3.56038 1.05739e-19)
(0.281415 3.63526 3.66429e-19)
(0.203571 3.61738 -3.22309e-19)
(0.413524 0.471026 4.28085e-19)
(0.89475 0.984814 -6.96023e-19)
(1.05055 1.19635 0)
(1.06669 1.22423 -1.7274e-19)
(1.01856 1.21491 6.55875e-19)
(0.966721 1.18411 0)
(0.903301 1.15708 0)
(0.833309 1.12585 9.12979e-19)
(0.751608 1.0942 1.59965e-20)
(0.655713 1.06261 -1.01574e-19)
(0.54572 1.03422 -1.63317e-19)
(0.458151 1.02835 1.31386e-19)
(0.428208 1.21974 0)
(0.466543 2.0897 -1.27037e-19)
(0.517572 3.12375 1.11624e-19)
(0.576938 3.4434 -5.37631e-20)
(0.572452 3.5543 0)
(0.496061 3.6603 -2.11213e-19)