/*--------------------------------*- C++ -*----------------------------------*\
| =========                 |                                                 |
| \\      /  F ield         | OpenFOAM: The Open Source CFD Toolbox           |
|  \\    /   O peration     | Version:  v2012                                 |
|   \\  /    A nd           | Website:  www.openfoam.com                      |
|    \\/     M anipulation  |                                                 |
\*---------------------------------------------------------------------------*/
FoamFile
{
    version     2.0;
    format      ascii;
    class       volScalarField;
    location    "41";
    object      p;
}
// * * * * * * * * * * * * * * * * * * * * * * * * * * * * * * * * * * * * * //

dimensions      [0 2 -2 0 0 0 0];


internalField   nonuniform List<scalar> 
2200
(
0.793497
0.771996
0.756085
0.740411
0.725794
0.713263
0.702891
0.694768
0.689044
0.686038
0.686467
0.690238
0.696518
0.70504
0.715693
0.728435
0.743201
0.75908
0.775098
0.796603
0.725918
0.722658
0.719732
0.715613
0.710145
0.703665
0.697038
0.691058
0.686519
0.684066
0.684488
0.687742
0.692876
0.699296
0.706247
0.71297
0.718611
0.722727
0.725607
0.728948
0.686032
0.686251
0.688303
0.689635
0.69001
0.68914
0.687138
0.684437
0.681856
0.680319
0.680803
0.683185
0.686417
0.689608
0.691929
0.692942
0.692667
0.691616
0.689902
0.68966
0.663576
0.665027
0.667614
0.670056
0.672489
0.674494
0.675625
0.675829
0.67542
0.675086
0.675647
0.676939
0.678073
0.678411
0.677689
0.675992
0.673811
0.671595
0.668999
0.667586
0.649231
0.651201
0.654017
0.656856
0.659709
0.662526
0.664965
0.666797
0.667975
0.668712
0.669361
0.669746
0.669439
0.668267
0.666358
0.663937
0.661353
0.658613
0.655823
0.653895
0.641957
0.643554
0.645753
0.648273
0.650919
0.653556
0.656112
0.658491
0.660448
0.661865
0.662629
0.662561
0.661658
0.660078
0.658127
0.655949
0.653599
0.651246
0.649139
0.647562
0.638641
0.639665
0.640927
0.642772
0.64489
0.647022
0.649167
0.65139
0.653535
0.655282
0.65619
0.656087
0.655206
0.653932
0.652481
0.650881
0.649148
0.647549
0.64642
0.645403
0.636052
0.636723
0.637348
0.638638
0.640236
0.641899
0.64361
0.645472
0.647447
0.649295
0.650397
0.650561
0.650124
0.649405
0.648542
0.647513
0.646398
0.645428
0.64496
0.644286
0.632894
0.633337
0.633735
0.634729
0.635985
0.637346
0.638797
0.640386
0.642118
0.643927
0.645274
0.645895
0.646026
0.64585
0.645462
0.644899
0.644239
0.643648
0.64343
0.642972
0.629007
0.629301
0.629658
0.63053
0.63164
0.632898
0.634288
0.63581
0.637477
0.639296
0.640947
0.64208
0.642689
0.642919
0.642848
0.64257
0.642173
0.641772
0.64161
0.641294
0.624523
0.624728
0.6251
0.625921
0.627001
0.628292
0.629793
0.631485
0.633354
0.635419
0.637451
0.639013
0.639961
0.640415
0.640538
0.64043
0.640181
0.639896
0.639745
0.639517
0.619488
0.619631
0.620009
0.620843
0.622012
0.623459
0.62517
0.627128
0.629342
0.631831
0.634317
0.636246
0.637471
0.638129
0.638406
0.638463
0.638334
0.638161
0.638036
0.637863
0.614116
0.614211
0.614584
0.615426
0.616682
0.6183
0.620254
0.622536
0.625179
0.628192
0.631252
0.633673
0.635243
0.636169
0.636629
0.636791
0.636835
0.636797
0.636713
0.636578
0.608501
0.608555
0.608938
0.609785
0.6111
0.612844
0.615023
0.617698
0.620894
0.624609
0.628366
0.631338
0.633317
0.634573
0.63534
0.635745
0.635989
0.636068
0.636031
0.635913
0.602428
0.60246
0.602867
0.603748
0.60519
0.607115
0.60954
0.612593
0.616411
0.620948
0.625532
0.629162
0.631698
0.633444
0.634641
0.635416
0.635874
0.63608
0.636093
0.635977
0.595763
0.595702
0.596125
0.597106
0.598763
0.600919
0.603642
0.607093
0.611454
0.616819
0.622443
0.62709
0.63049
0.632951
0.634676
0.635788
0.63645
0.636791
0.636856
0.636745
0.58838
0.588367
0.588762
0.589818
0.591704
0.594175
0.597326
0.601313
0.606397
0.612761
0.619694
0.625668
0.630078
0.633243
0.635478
0.636973
0.637911
0.638399
0.638515
0.638412
0.580099
0.580102
0.580524
0.581716
0.583923
0.586829
0.590626
0.59553
0.601762
0.609521
0.617994
0.625249
0.630679
0.634602
0.637365
0.639263
0.640487
0.641114
0.641282
0.641178
0.570527
0.570471
0.571018
0.572511
0.575071
0.578568
0.583264
0.589392
0.597206
0.606855
0.617143
0.625807
0.632201
0.636884
0.640304
0.642716
0.64426
0.645057
0.64529
0.64518
0.559166
0.559061
0.5597
0.561527
0.564648
0.568912
0.57462
0.582092
0.591701
0.603548
0.616074
0.626554
0.634433
0.640301
0.644546
0.647507
0.649429
0.650421
0.650715
0.650584
0.545772
0.545636
0.546348
0.548435
0.552117
0.557291
0.564283
0.573415
0.585114
0.599526
0.61481
0.627656
0.637329
0.644475
0.64974
0.653538
0.655997
0.657236
0.657605
0.65744
0.529166
0.52907
0.530022
0.532562
0.537106
0.543601
0.552401
0.563866
0.578376
0.595948
0.614321
0.629733
0.641282
0.649983
0.656444
0.661095
0.664126
0.665609
0.666032
0.665818
0.508323
0.508157
0.509442
0.512849
0.518833
0.527393
0.538886
0.553648
0.571839
0.59325
0.615089
0.633203
0.646788
0.656974
0.664584
0.67015
0.67376
0.67547
0.675937
0.675666
0.480984
0.480997
0.483071
0.487896
0.496195
0.507932
0.52325
0.542266
0.564943
0.590902
0.616775
0.637881
0.653617
0.665473
0.674386
0.680808
0.684917
0.686811
0.68729
0.686967
0.444285
0.444557
0.448115
0.455839
0.468059
0.48465
0.505168
0.529511
0.55749
0.588622
0.618941
0.643374
0.661553
0.675241
0.685499
0.692953
0.697602
0.699641
0.700099
0.699696
0.394896
0.395333
0.402377
0.415338
0.433954
0.457596
0.485004
0.515937
0.550132
0.587031
0.62215
0.650037
0.67067
0.686264
0.698078
0.70656
0.711621
0.713648
0.71394
0.713532
0.329032
0.331931
0.347205
0.368564
0.396094
0.428462
0.463921
0.502338
0.543507
0.586863
0.627383
0.659347
0.683172
0.701307
0.715019
0.725013
0.730818
0.732918
0.733028
0.732831
0.253888
0.263559
0.289041
0.320284
0.357912
0.399309
0.442951
0.489166
0.537749
0.588127
0.634766
0.671675
0.699203
0.720306
0.736612
0.748332
0.754977
0.756933
0.756922
0.757014
0.186808
0.201791
0.233699
0.2737
0.320826
0.371114
0.422749
0.476685
0.532556
0.589698
0.642209
0.683634
0.714746
0.738577
0.756707
0.769832
0.777231
0.779948
0.780431
0.780441
0.135844
0.149285
0.18651
0.232496
0.286859
0.344537
0.403557
0.464762
0.527547
0.591339
0.649501
0.695083
0.729115
0.755101
0.774895
0.789576
0.797373
0.800437
0.800878
0.80095
0.0936992
0.106309
0.147212
0.197114
0.256909
0.320446
0.385868
0.45359
0.522729
0.592613
0.655788
0.705283
0.741931
0.769702
0.790656
0.806044
0.814499
0.817909
0.818462
0.818578
0.0574785
0.070312
0.113736
0.16652
0.230615
0.298865
0.369677
0.442976
0.517684
0.593062
0.661489
0.714376
0.753071
0.782201
0.804077
0.819731
0.82859
0.832348
0.833046
0.833156
0.0258137
0.0388185
0.0842354
0.139553
0.20722
0.279374
0.354722
0.432867
0.512731
0.593604
0.666374
0.721941
0.762491
0.792717
0.814885
0.830774
0.840168
0.844137
0.845008
0.845094
-0.00261548
0.0104214
0.0575254
0.115205
0.185944
0.261425
0.34071
0.423138
0.507541
0.592863
0.669271
0.728011
0.770091
0.80105
0.823899
0.840034
0.849764
0.854021
0.855
0.85507
-0.0285372
-0.0155483
0.0328237
0.092772
0.166167
0.244554
0.327241
0.41333
0.501707
0.59131
0.672312
0.733364
0.776724
0.80863
0.831881
0.848199
0.858323
0.862567
0.863646
0.863568
-0.0528673
-0.0395716
0.00964293
0.0717062
0.147447
0.228386
0.314025
0.403367
0.495575
0.589441
0.673897
0.737489
0.782906
0.815463
0.839267
0.855738
0.865497
0.869922
0.870881
0.8707
-0.0757146
-0.0621708
-0.0122823
0.0516241
0.129401
0.212652
0.300967
0.393321
0.488926
0.586374
0.674516
0.741842
0.788576
0.822049
0.845961
0.862396
0.872134
0.876376
0.877455
0.87734
-0.0972331
-0.0837367
-0.0331426
0.0323345
0.111851
0.197186
0.287896
0.382875
0.481433
0.582586
0.675113
0.745153
0.793944
0.828439
0.852495
0.868883
0.878432
0.88262
0.883571
0.883496
-0.117868
-0.104229
-0.0531095
0.0136575
0.0946392
0.181824
0.274657
0.371992
0.473418
0.57815
0.674439
0.747719
0.799265
0.834826
0.859259
0.875418
0.884762
0.888671
0.889576
0.889468
-0.138104
-0.123889
-0.0723611
-0.00450075
0.077719
0.166515
0.261253
0.360818
0.464982
0.57299
0.673123
0.750299
0.804364
0.84155
0.866494
0.882331
0.891044
0.894674
0.895335
0.895222
-0.158
-0.142961
-0.0910699
-0.0222324
0.0610499
0.151271
0.247746
0.349377
0.455989
0.566929
0.670647
0.751774
0.809183
0.84875
0.874463
0.889783
0.897655
0.900394
0.900847
0.90069
-0.177451
-0.161637
-0.109325
-0.0395648
0.044652
0.136133
0.234165
0.337618
0.446318
0.55988
0.667353
0.752563
0.813804
0.856254
0.883516
0.898408
0.904655
0.905917
0.905893
0.905763
-0.196311
-0.179929
-0.127135
-0.0564889
0.0285597
0.121124
0.220475
0.325489
0.436098
0.5522
0.662949
0.75199
0.817557
0.864126
0.894001
0.909009
0.913148
0.911014
0.910317
0.91111
-0.214557
-0.197757
-0.144443
-0.0729663
0.012816
0.10628
0.206719
0.313099
0.425495
0.543765
0.657
0.750209
0.820655
0.871936
0.905924
0.922498
0.92496
0.918609
0.913202
0.91146
-0.232156
-0.215011
-0.161181
-0.0889557
-0.00253457
0.0916671
0.192999
0.300553
0.414457
0.534412
0.649893
0.746911
0.821997
0.879312
0.919068
0.939679
0.944714
0.932323
0.93015
0.934502
-0.249115
-0.231621
-0.17729
-0.104408
-0.0174357
0.0773717
0.179429
0.287919
0.402978
0.524374
0.641977
0.741834
0.821664
0.885105
0.932363
0.960239
0.971239
0.943736
0.90135
0.86327
-0.265369
-0.247596
-0.192803
-0.119387
-0.0319773
0.0632877
0.165867
0.275005
0.390888
0.513505
0.63271
0.734607
0.818351
0.888133
0.944407
0.983509
1.00903
0.997822
1.01464
1.07005
-0.280878
-0.262989
-0.207818
-0.134028
-0.0463317
0.0491937
0.152038
0.261499
0.377846
0.501254
0.621464
0.724733
0.811082
0.885641
0.946815
0.989869
1.00881
0.993678
0.955607
0.968151
-0.295613
-0.277773
-0.222289
-0.148274
-0.0604223
0.0351848
0.138075
0.247585
0.364036
0.487686
0.608274
0.711833
0.798125
0.873238
0.934193
0.975454
0.969637
0.920263
0.858317
0.846701
-0.309571
-0.291943
-0.236219
-0.162131
-0.0742535
0.0212594
0.123999
0.233309
0.349498
0.472823
0.593075
0.69567
0.779481
0.849324
0.903823
0.917687
0.885867
0.812175
0.739114
0.719824
-0.322786
-0.305492
-0.24962
-0.175623
-0.0878542
0.00740257
0.10982
0.218696
0.334241
0.456638
0.575705
0.67597
0.753908
0.811706
0.841634
0.831869
0.7788
0.678889
0.592548
0.57208
-0.335714
-0.318828
-0.262891
-0.189123
-0.101582
-0.00670007
0.0952567
0.203491
0.318062
0.438995
0.55601
0.65247
0.723241
0.765108
0.76092
0.728054
0.621123
0.500338
0.394007
0.368372
-0.349251
-0.332739
-0.276728
-0.203256
-0.116014
-0.0215392
0.0798852
0.187341
0.3007
0.419672
0.533689
0.624733
0.688267
0.706847
0.673002
0.588027
0.433588
0.282225
0.154293
0.127903
-0.363923
-0.347644
-0.29146
-0.218263
-0.131333
-0.0372503
0.0636014
0.170173
0.282123
0.398656
0.508636
0.59398
0.646503
0.637799
0.584432
0.436787
0.237299
0.0250003
-0.154713
-0.201964
-0.379835
-0.363622
-0.307136
-0.234161
-0.147518
-0.0538094
0.0464341
0.152032
0.262404
0.376112
0.481051
0.561126
0.598635
0.558359
0.471203
0.283217
0.0508089
-0.23909
-0.561834
-0.707802
-0.39707
-0.380782
-0.323885
-0.25104
-0.164618
-0.0712745
0.0283202
0.13285
0.241485
0.352086
0.451188
0.525384
0.545489
0.474178
0.338145
0.130951
-0.105693
-0.452428
-1.04361
-1.61786
-0.415695
-0.399196
-0.341759
-0.268952
-0.182655
-0.0896377
0.00930378
0.112723
0.21956
0.32699
0.420114
0.486638
0.489125
0.399646
0.208961
-0.0275942
-0.233949
-0.473161
-1.03754
-2.57258
-0.435724
-0.41896
-0.360879
-0.288029
-0.201779
-0.109088
-0.0108445
0.0913723
0.196267
0.300369
0.387602
0.444811
0.427865
0.340832
0.11409
-0.128038
-0.279268
-0.320096
-0.315213
-0.707774
-0.457076
-0.440195
-0.381386
-0.308554
-0.222395
-0.130118
-0.0327333
0.068058
0.170698
0.270907
0.352673
0.399711
0.367093
0.292506
0.0631508
-0.144045
-0.25798
-0.267497
-0.215627
-0.256905
-0.479629
-0.462801
-0.403304
-0.330596
-0.244565
-0.152839
-0.0564979
0.0426327
0.142651
0.238419
0.315571
0.352843
0.312938
0.240223
0.0296837
-0.135843
-0.219413
-0.227053
-0.274778
-0.280376
-0.503333
-0.48654
-0.426501
-0.354131
-0.268283
-0.17727
-0.0821755
0.0150482
0.112116
0.203275
0.275844
0.304068
0.265954
0.180344
0.00225838
-0.126114
-0.19887
-0.171926
-0.193751
-0.195477
-0.528004
-0.511026
-0.450927
-0.379083
-0.293378
-0.203308
-0.109663
-0.0145593
0.0792737
0.165899
0.234
0.251803
0.22407
0.112579
-0.0328498
-0.120849
-0.165419
-0.208066
-0.18425
-0.19232
-0.55326
-0.535925
-0.476383
-0.40523
-0.319637
-0.230791
-0.138769
-0.045958
0.0442664
0.126557
0.19046
0.198315
0.181673
0.0510639
-0.0699812
-0.136584
-0.121483
-0.180768
-0.159128
-0.164156
-0.578379
-0.560825
-0.502747
-0.432218
-0.346693
-0.259434
-0.169169
-0.0787878
0.00737184
0.0857622
0.146992
0.146962
0.130597
-0.00260599
-0.0999317
-0.154295
-0.136166
-0.158411
-0.162337
-0.161766
-0.602815
-0.585443
-0.529123
-0.459262
-0.374224
-0.288869
-0.200442
-0.112589
-0.0307899
0.0438061
0.103442
0.0985994
0.0742845
-0.0484087
-0.117398
-0.151173
-0.179216
-0.160782
-0.166901
-0.163174
-0.625744
-0.609079
-0.554575
-0.485598
-0.401803
-0.318488
-0.231986
-0.146761
-0.0693243
0.00105466
0.0601049
0.0533536
0.0188865
-0.0869052
-0.137342
-0.131587
-0.193711
-0.155965
-0.165888
-0.159446
-0.646328
-0.630778
-0.57804
-0.510202
-0.428995
-0.347517
-0.263066
-0.180573
-0.107138
-0.0417978
0.0164315
0.0100647
-0.0314969
-0.108871
-0.157897
-0.128114
-0.18279
-0.146428
-0.15082
-0.147809
-0.663225
-0.649242
-0.598871
-0.532662
-0.454707
-0.374852
-0.292751
-0.213151
-0.143143
-0.0839675
-0.0268727
-0.0342616
-0.0748058
-0.112643
-0.14611
-0.138728
-0.14189
-0.141161
-0.140261
-0.138114
-0.675418
-0.66345
-0.615976
-0.551984
-0.477328
-0.399569
-0.320099
-0.243404
-0.176276
-0.123678
-0.068239
-0.0774202
-0.122418
-0.112836
-0.0903156
-0.0919403
-0.101791
-0.133092
-0.137457
-0.140176
-0.681698
-0.672028
-0.628425
-0.567116
-0.495439
-0.420401
-0.343836
-0.270089
-0.20531
-0.158784
-0.104473
-0.117624
-0.184738
-0.162172
-0.0607335
-0.080507
-0.0896502
-0.118746
-0.131216
-0.139322
-0.681659
-0.674061
-0.634473
-0.576346
-0.507993
-0.436134
-0.362646
-0.29158
-0.229111
-0.186198
-0.13584
-0.149725
-0.254092
-0.333552
-0.337545
-0.411784
-0.414409
-0.390003
-0.370713
-0.359564
-0.674396
-0.667128
-0.632551
-0.57866
-0.513984
-0.445531
-0.375107
-0.306237
-0.244794
-0.202644
-0.159395
-0.171067
-0.337579
-0.611264
-0.992202
-1.1891
-1.23292
-1.18885
-1.08544
-1.00365
-0.655655
-0.647825
-0.620181
-0.572399
-0.51248
-0.447787
-0.380288
-0.312622
-0.249738
-0.20412
-0.165672
-0.159741
-0.340568
-0.657742
-1.02934
-1.16987
-1.15635
-1.05182
-0.962915
-0.91921
-0.618256
-0.611076
-0.596215
-0.557958
-0.503472
-0.442388
-0.377549
-0.309403
-0.241687
-0.186525
-0.141103
-0.090861
-0.0809617
-0.0698138
-0.0960302
-0.0342228
0.0667065
0.151445
0.235295
0.306715
-0.573112
-0.569472
-0.565705
-0.536037
-0.488737
-0.431111
-0.367193
-0.297262
-0.221529
-0.146032
-0.0749523
0.0552774
0.246891
0.564697
0.85441
1.10241
1.29939
1.41698
1.47327
1.49362
-0.543273
-0.543688
-0.53676
-0.514645
-0.472881
-0.416739
-0.351076
-0.27797
-0.192913
-0.0939483
0.012857
0.17102
0.450716
0.854494
1.25345
1.5855
1.80862
1.93443
1.98825
2.00609
-0.511547
-0.512618
-0.505848
-0.496155
-0.459335
-0.40335
-0.334342
-0.25725
-0.16732
-0.0585661
0.0598351
0.187102
0.456164
0.796215
1.13099
1.42028
1.63493
1.76414
1.82271
1.83988
-0.482741
-0.481356
-0.48055
-0.478343
-0.445939
-0.391186
-0.320144
-0.239708
-0.149564
-0.0429932
0.0696994
0.156237
0.377298
0.659792
0.929181
1.16444
1.35272
1.46827
1.51985
1.53339
-0.473215
-0.470718
-0.474626
-0.46867
-0.437998
-0.380395
-0.30778
-0.226964
-0.141023
-0.0467169
0.0577334
0.116363
0.281021
0.512285
0.724024
0.903143
1.04795
1.13913
1.17951
1.19019
-0.462641
-0.461619
-0.468449
-0.462996
-0.431965
-0.368975
-0.295749
-0.217015
-0.137619
-0.05831
0.0387797
0.0853323
0.196104
0.379248
0.545761
0.678597
0.783312
0.852328
0.882919
0.88987
-0.433663
-0.434272
-0.44024
-0.437056
-0.406671
-0.345873
-0.277465
-0.20437
-0.132461
-0.067013
0.0211389
0.0648676
0.133241
0.271486
0.400611
0.499538
0.575161
0.625355
0.646304
0.652155
-0.370223
-0.372193
-0.378247
-0.374413
-0.34933
-0.301086
-0.245816
-0.184181
-0.120845
-0.0681108
0.00778628
0.0496898
0.0923913
0.19529
0.291169
0.36203
0.415764
0.452115
0.467268
0.472464
-0.27324
-0.275839
-0.278757
-0.277291
-0.261679
-0.232268
-0.196166
-0.152572
-0.101333
-0.0607511
-0.000144636
0.0377455
0.0660398
0.144552
0.213107
0.26162
0.300662
0.328144
0.339032
0.342003
-0.169908
-0.17157
-0.17334
-0.173675
-0.167523
-0.154648
-0.136392
-0.110923
-0.0764061
-0.0469831
-0.00277825
0.0281422
0.0485983
0.110548
0.158889
0.191099
0.218315
0.235685
0.243466
0.245815
-0.0811638
-0.082233
-0.083977
-0.0864866
-0.0873515
-0.0856574
-0.0801048
-0.0686483
-0.0496209
-0.0306021
-0.00137787
0.0219155
0.0361605
0.0837648
0.117532
0.140079
0.156586
0.166194
0.169692
0.170131
-0.0171278
-0.0178795
-0.0194701
-0.0235381
-0.0290708
-0.0338285
-0.035738
-0.0333514
-0.025323
-0.0156378
0.00219358
0.019228
0.0302212
0.0623586
0.0847263
0.0995345
0.108551
0.112471
0.112787
0.111744
0.0217717
0.0212084
0.0197561
0.015055
0.00725878
-0.000557064
-0.00641295
-0.00916103
-0.00730394
-0.00377894
0.00634599
0.0176704
0.0267314
0.0459112
0.0590198
0.0667154
0.0706893
0.0709971
0.0693079
0.0678945
0.0410346
0.0406008
0.0393187
0.0349443
0.027011
0.0184588
0.0109104
0.00550519
0.00423332
0.00493528
0.0109421
0.0177683
0.0235561
0.0330775
0.0398046
0.0426874
0.0431866
0.0417333
0.0396078
0.0382079
0.0479328
0.047583
0.0464929
0.0428452
0.0360497
0.0283989
0.0208813
0.0146193
0.0118317
0.0110073
0.0151317
0.0184686
0.02103
0.0252728
0.0276443
0.0283278
0.0280149
0.0266329
0.0249003
0.0232084
0.0479711
0.0476945
0.0468399
0.0441261
0.0390346
0.0330444
0.0266744
0.0207571
0.0172821
0.0150494
0.0173785
0.0189964
0.0189079
0.0208563
0.021286
0.0214989
0.0205531
0.01852
0.0167863
0.0152803
0.0451612
0.0449418
0.0443055
0.0423471
0.0387112
0.0342652
0.029303
0.0241901
0.0207155
0.0174407
0.018045
0.0188756
0.017706
0.019098
0.0187242
0.0182246
0.0169357
0.0151805
0.0136433
0.0123136
0.0412872
0.0411419
0.0407058
0.039353
0.0367161
0.0333136
0.0294695
0.0252228
0.0222607
0.0187491
0.0185815
0.0178012
0.0163303
0.0182812
0.0191009
0.0184776
0.0177696
0.0166762
0.015743
0.0145176
0.0368906
0.0367946
0.0364636
0.0355505
0.0336463
0.0310905
0.0281353
0.0246914
0.0223624
0.0193322
0.0188187
0.0177781
0.0172413
0.0184867
0.0202564
0.021136
0.0205542
0.0199063
0.0198389
0.0188423
0.0322313
0.0321607
0.0319203
0.0313581
0.0299714
0.02817
0.0259659
0.0232931
0.0216404
0.0190279
0.0187862
0.0179795
0.0184215
0.0204519
0.022139
0.0239867
0.0250872
0.0253761
0.0254954
0.0248422
0.0275153
0.0274419
0.0272233
0.0268353
0.0259572
0.0248199
0.0233018
0.0214457
0.0203224
0.0181922
0.0184647
0.0181876
0.0183853
0.0221918
0.0253743
0.0275747
0.0309456
0.0333471
0.0339562
0.0329912
0.0232338
0.023159
0.0230127
0.0227355
0.0221215
0.0215146
0.0204946
0.0190779
0.018433
0.0169317
0.017779
0.0178255
0.0192016
0.0234593
0.0281732
0.032391
0.0352335
0.0377875
0.0393329
0.0380473
0.0193501
0.0192656
0.0191624
0.0190051
0.018656
0.0182883
0.0177935
0.0168456
0.0163382
0.0152246
0.0166329
0.0170332
0.02005
0.0232959
0.0282258
0.0342605
0.0377906
0.0394438
0.0406584
0.0399106
0.015777
0.0156857
0.0156392
0.0155436
0.0153157
0.0150905
0.0146684
0.0140683
0.0139505
0.0127656
0.0141414
0.0139373
0.017704
0.0226691
0.0279795
0.0329609
0.0386732
0.0415257
0.042156
0.0412043
0.0124381
0.0123077
0.012295
0.0122074
0.0120551
0.0118782
0.0116766
0.0108868
0.0108424
0.0101083
0.0111694
0.0109788
0.0129361
0.0164701
0.0244891
0.0313641
0.0364513
0.039384
0.0407184
0.0393802
0.00902995
0.00892033
0.00892847
0.00885624
0.00883773
0.00862521
0.0086997
0.00778885
0.00784884
0.00766043
0.00777058
0.00864294
0.00927962
0.0114089
0.0190343
0.0259034
0.0314307
0.0352016
0.0365131
0.0350003
0.00568215
0.0055346
0.00541937
0.00544692
0.00560397
0.00521907
0.00522259
0.00481577
0.0048395
0.00533466
0.00477938
0.00489185
0.00339764
0.00982225
0.0152441
0.0193767
0.0239221
0.0264611
0.0272851
0.0261861
0.00236655
0.00229864
0.00229253
0.00222778
0.00187137
0.00151017
0.00142991
0.00228666
0.00333659
0.00345223
0.002997
0.00276661
0.00162593
0.00564905
0.00602202
0.00486554
0.00474883
0.00441597
0.00581186
0.00563381
-1.06846
-0.220083
0.0502091
0.329095
0.51402
0.673301
0.804058
0.937023
1.08137
1.16123
-0.0806256
0.329811
0.349045
0.539173
0.666377
0.780246
0.878586
0.965843
0.993941
0.95125
0.301884
0.518058
0.555768
0.693401
0.781473
0.863123
0.930326
0.980681
0.983219
0.996828
0.534922
0.680189
0.716065
0.820043
0.877182
0.936638
0.982032
1.01473
1.02401
1.04754
0.715625
0.818793
0.848588
0.918021
0.962397
1.00455
1.03704
1.06149
1.07145
1.1029
0.860716
0.930539
0.961058
1.00483
1.04123
1.07178
1.09636
1.11717
1.13148
1.15967
0.980992
1.03215
1.05789
1.08625
1.11426
1.13825
1.1584
1.17773
1.19275
1.21918
1.08546
1.1227
1.14396
1.16483
1.18588
1.20545
1.22297
1.24115
1.25607
1.27972
1.17985
1.20909
1.22553
1.24095
1.25728
1.27348
1.2891
1.30606
1.31967
1.34198
1.26838
1.2889
1.30387
1.3172
1.3309
1.34475
1.35827
1.37286
1.38439
1.40403
1.35408
1.36999
1.38391
1.39579
1.40775
1.41939
1.43051
1.44217
1.44982
1.46663
1.43966
1.45233
1.46608
1.47777
1.48835
1.49809
1.50686
1.51509
1.51865
1.52992
1.52858
1.53962
1.55309
1.56238
1.5698
1.577
1.58418
1.5907
1.59175
1.59915
1.62704
1.63161
1.63969
1.64432
1.64766
1.65214
1.65814
1.66586
1.66972
1.6796
1.74009
1.72669
1.7194
1.71379
1.71112
1.71249
1.71889
1.73126
1.74605
1.77571
1.8617
1.80581
1.77485
1.75766
1.74948
1.74946
1.75824
1.77782
1.80973
1.87896
)
;

boundaryField
{
    wall-4
    {
        type            zeroGradient;
    }
    pressure-outlet-7
    {
        type            fixedValue;
        value           uniform 0;
    }
    velocity-inlet-6
    {
        type            zeroGradient;
    }
    velocity-inlet-5
    {
        type            zeroGradient;
    }
    frontAndBackPlanes
    {
        type            empty;
    }
}


// ************************************************************************* //
