/*--------------------------------*- C++ -*----------------------------------*\
| =========                 |                                                 |
| \\      /  F ield         | OpenFOAM: The Open Source CFD Toolbox           |
|  \\    /   O peration     | Version:  v2012                                 |
|   \\  /    A nd           | Website:  www.openfoam.com                      |
|    \\/     M anipulation  |                                                 |
\*---------------------------------------------------------------------------*/
FoamFile
{
    version     2.0;
    format      ascii;
    class       volScalarField;
    location    "35";
    object      p;
}
// * * * * * * * * * * * * * * * * * * * * * * * * * * * * * * * * * * * * * //

dimensions      [0 2 -2 0 0 0 0];


internalField   nonuniform List<scalar> 
2200
(
0.961911
0.94041
0.9245
0.90883
0.894213
0.881683
0.871309
0.86317
0.857421
0.854407
0.854792
0.858514
0.864783
0.873287
0.883921
0.896648
0.911405
0.927255
0.943259
0.964766
0.894365
0.891106
0.888178
0.884049
0.87857
0.872079
0.865439
0.859459
0.854907
0.852437
0.852828
0.856038
0.861136
0.867527
0.874463
0.881175
0.88681
0.890942
0.893835
0.897166
0.854456
0.854674
0.85672
0.858057
0.858444
0.857576
0.855571
0.852869
0.85029
0.848737
0.849198
0.851534
0.85471
0.857854
0.860149
0.861146
0.860849
0.859785
0.858044
0.857802
0.831971
0.833415
0.836022
0.838488
0.840917
0.842919
0.844056
0.844239
0.843807
0.843425
0.843948
0.845208
0.846319
0.846643
0.845888
0.844179
0.841988
0.839736
0.837129
0.835716
0.817749
0.819726
0.822533
0.825341
0.828165
0.830961
0.833379
0.835193
0.836343
0.83702
0.837617
0.837982
0.837632
0.836434
0.834501
0.832074
0.829485
0.826746
0.823961
0.822029
0.810451
0.812051
0.814242
0.816759
0.819411
0.822054
0.824595
0.826968
0.828916
0.830316
0.83102
0.83088
0.829903
0.828258
0.826271
0.824033
0.821653
0.819282
0.817167
0.81559
0.807076
0.808092
0.809358
0.811225
0.813369
0.815511
0.817652
0.819866
0.821986
0.823705
0.824552
0.824356
0.823425
0.82209
0.820593
0.818942
0.817161
0.815526
0.81438
0.813368
0.804619
0.805288
0.805918
0.807214
0.808812
0.810457
0.812139
0.813945
0.815839
0.817602
0.81863
0.818725
0.818245
0.817497
0.81659
0.815546
0.814398
0.813413
0.812931
0.812257
0.801572
0.802021
0.802419
0.803415
0.804668
0.80603
0.807475
0.809037
0.810719
0.812433
0.813692
0.81425
0.814291
0.814042
0.813573
0.81293
0.812214
0.811574
0.811339
0.81088
0.797666
0.797955
0.798328
0.799235
0.800384
0.801677
0.803112
0.804677
0.806364
0.808147
0.809696
0.810674
0.811125
0.811182
0.810969
0.81057
0.810067
0.809585
0.809388
0.809083
0.793235
0.793418
0.793814
0.794709
0.795878
0.797249
0.798791
0.800478
0.8023
0.804282
0.806179
0.807573
0.808358
0.808668
0.808622
0.808358
0.807978
0.807599
0.807411
0.807207
0.788502
0.788633
0.789012
0.789872
0.791088
0.792593
0.79434
0.796293
0.798436
0.800797
0.803149
0.804985
0.806067
0.806553
0.806621
0.80644
0.806179
0.805922
0.805768
0.805619
0.783425
0.78351
0.783888
0.784724
0.785974
0.787595
0.789588
0.791946
0.794649
0.797644
0.800543
0.802682
0.803966
0.804596
0.804838
0.804873
0.804787
0.804662
0.804551
0.804429
0.777887
0.777935
0.778312
0.779198
0.780545
0.782286
0.784445
0.787099
0.790325
0.794015
0.797553
0.800137
0.801791
0.802835
0.803459
0.803719
0.803801
0.803794
0.80374
0.803648
0.772054
0.772016
0.772445
0.773342
0.774816
0.77669
0.778989
0.781835
0.785397
0.789694
0.794077
0.797582
0.800033
0.80172
0.802822
0.803357
0.80363
0.803729
0.803718
0.803653
0.765991
0.765902
0.766289
0.767259
0.768877
0.770983
0.773577
0.776798
0.780849
0.78587
0.791286
0.795894
0.799243
0.801543
0.803039
0.803957
0.804482
0.804712
0.804757
0.804704
0.759358
0.759359
0.759687
0.760686
0.762586
0.76503
0.768159
0.772143
0.777137
0.78328
0.789909
0.795519
0.799577
0.802418
0.804363
0.805673
0.806444
0.80683
0.806937
0.806881
0.751733
0.751693
0.752138
0.753382
0.755496
0.758315
0.762082
0.766982
0.773204
0.78087
0.789002
0.795771
0.800695
0.804229
0.806748
0.80844
0.809461
0.810023
0.810204
0.810143
0.742935
0.742843
0.743361
0.744749
0.7471
0.750348
0.754746
0.760542
0.768081
0.777496
0.787554
0.795991
0.802242
0.806778
0.810026
0.812256
0.813693
0.814477
0.814734
0.814653
0.732185
0.732086
0.73266
0.734238
0.736997
0.740861
0.74612
0.753126
0.762231
0.773694
0.78606
0.796511
0.804317
0.810103
0.814286
0.817226
0.819172
0.820202
0.820539
0.820426
0.719101
0.718984
0.719668
0.721569
0.724919
0.729752
0.736403
0.745192
0.756549
0.77063
0.785607
0.798205
0.807644
0.814669
0.819817
0.823525
0.826002
0.827283
0.827684
0.827529
0.702669
0.702589
0.70357
0.706028
0.710368
0.716628
0.725148
0.73642
0.750746
0.768064
0.786093
0.801085
0.812312
0.820686
0.826853
0.83127
0.834234
0.83573
0.836185
0.835993
0.681883
0.681738
0.683057
0.686415
0.692173
0.700495
0.71172
0.726228
0.744201
0.765421
0.787074
0.804857
0.818081
0.827981
0.835277
0.840551
0.844049
0.845769
0.846277
0.846036
0.654357
0.654424
0.656564
0.661314
0.669401
0.680908
0.695873
0.714566
0.736967
0.762725
0.788462
0.809426
0.824966
0.836602
0.845255
0.85151
0.855578
0.857519
0.858056
0.857759
0.617357
0.617673
0.621364
0.629165
0.641229
0.657556
0.677768
0.701862
0.729636
0.760613
0.790879
0.815212
0.833175
0.846637
0.8567
0.864027
0.868707
0.870891
0.871462
0.87107
0.567917
0.568372
0.575534
0.588545
0.607124
0.630644
0.657851
0.688636
0.722723
0.759565
0.794643
0.82245
0.842918
0.858304
0.869869
0.87823
0.883451
0.885716
0.886179
0.885747
0.502115
0.505099
0.520553
0.542085
0.569524
0.601638
0.63691
0.675234
0.716364
0.759754
0.8003
0.832309
0.856056
0.87397
0.8875
0.897493
0.903794
0.906327
0.906613
0.906376
0.426979
0.436785
0.462626
0.494155
0.531573
0.572611
0.61591
0.661991
0.710559
0.761014
0.807847
0.844912
0.872547
0.893709
0.910034
0.922055
0.929764
0.932559
0.932784
0.933011
0.360456
0.375676
0.408033
0.447924
0.494595
0.544347
0.595694
0.64956
0.705468
0.762792
0.815444
0.85708
0.888244
0.912105
0.930283
0.943846
0.952502
0.956553
0.95753
0.957498
0.310109
0.323708
0.361385
0.407124
0.460888
0.51787
0.576625
0.637801
0.700595
0.764454
0.822819
0.868701
0.902734
0.928562
0.948491
0.963594
0.972868
0.977134
0.978049
0.978144
0.26875
0.281398
0.322486
0.372097
0.431198
0.493907
0.559004
0.626647
0.695753
0.765844
0.82959
0.879019
0.915488
0.943076
0.963949
0.979734
0.989528
0.993989
0.99509
0.9952
0.233186
0.246121
0.289579
0.341965
0.405144
0.472416
0.54282
0.616032
0.69085
0.766589
0.834933
0.887634
0.926106
0.954808
0.97635
0.992283
1.00247
1.0073
1.0086
1.00872
0.202112
0.215197
0.260635
0.315461
0.38199
0.45303
0.52787
0.605871
0.685724
0.766491
0.839189
0.894729
0.93473
0.964344
0.986246
1.00241
1.01318
1.01826
1.01976
1.01987
0.174163
0.187323
0.234392
0.291453
0.36091
0.435173
0.513834
0.596012
0.680354
0.765868
0.842482
0.900516
0.941934
0.97229
0.99495
1.01137
1.02232
1.02764
1.02924
1.02928
0.148609
0.16177
0.210067
0.269244
0.341308
0.418383
0.500354
0.586158
0.674491
0.764022
0.844254
0.905121
0.948118
0.979457
1.00254
1.01923
1.03019
1.03557
1.0371
1.03687
0.124559
0.138046
0.187188
0.248398
0.322739
0.402269
0.487076
0.576027
0.667911
0.761449
0.846047
0.909504
0.954026
0.986119
1.00949
1.02629
1.03699
1.04238
1.0439
1.04376
0.101943
0.115522
0.16548
0.228525
0.304845
0.386548
0.473867
0.565703
0.661052
0.758666
0.846622
0.912822
0.959503
0.992506
1.01614
1.0329
1.04369
1.04884
1.05046
1.05036
0.0805609
0.0941478
0.14478
0.209346
0.287352
0.371052
0.460697
0.555175
0.653548
0.754358
0.846006
0.916138
0.964698
0.998722
1.02287
1.0396
1.05027
1.05536
1.05681
1.05675
0.0599166
0.0737344
0.124874
0.190718
0.270182
0.355706
0.447449
0.544231
0.645211
0.749457
0.845764
0.918954
0.969838
1.00543
1.02986
1.04656
1.05702
1.06183
1.06324
1.06312
0.039606
0.0540696
0.105588
0.172537
0.253251
0.340394
0.434013
0.532905
0.636526
0.744215
0.844032
0.920668
0.974865
1.01211
1.03737
1.05396
1.06389
1.06844
1.06954
1.06939
0.0196033
0.0348841
0.0867799
0.154737
0.236528
0.325099
0.420421
0.521305
0.627347
0.737883
0.841228
0.922203
0.979437
1.01918
1.04562
1.06204
1.07112
1.07485
1.07564
1.07544
6.35281e-05
0.0160838
0.0684172
0.137321
0.220037
0.309848
0.406687
0.509375
0.617513
0.730586
0.837405
0.922212
0.983567
1.02659
1.0549
1.07126
1.07888
1.08117
1.08129
1.08113
-0.0188932
-0.00232235
0.0505128
0.120311
0.203837
0.294699
0.392835
0.497076
0.607053
0.722459
0.832422
0.921332
0.98705
1.03417
1.06537
1.08252
1.08836
1.08691
1.08616
1.08685
-0.0372174
-0.0202366
0.0331261
0.103755
0.187996
0.27973
0.378933
0.484492
0.596084
0.713526
0.826003
0.918788
0.989394
1.0415
1.07702
1.0964
1.10129
1.09558
1.09009
1.0881
-0.054897
-0.037575
0.0163107
0.0876997
0.172584
0.265035
0.365084
0.47171
0.584663
0.703715
0.818435
0.914996
0.990174
1.04811
1.08962
1.1136
1.12193
1.11012
1.10692
1.11143
-0.0719251
-0.0542634
0.000130256
0.0722007
0.157658
0.250696
0.351398
0.458832
0.572862
0.693335
0.81011
0.909168
0.988775
1.05288
1.10188
1.13365
1.14932
1.1243
1.08071
1.04057
-0.0882464
-0.0703168
-0.0154534
0.0571869
0.143112
0.236589
0.337746
0.445735
0.560524
0.682141
0.800323
0.901277
0.984577
1.05461
1.11239
1.15549
1.18624
1.18152
1.19876
1.25217
-0.103812
-0.0857778
-0.0305289
0.042516
0.128752
0.222481
0.323868
0.432115
0.547266
0.66959
0.788799
0.890825
0.976112
1.05052
1.11288
1.15938
1.1833
1.17384
1.13877
1.14972
-0.118595
-0.100624
-0.0450596
0.028235
0.114651
0.208464
0.309883
0.418146
0.533343
0.655798
0.775065
0.877164
0.962167
1.03658
1.09808
1.14204
1.14001
1.0939
1.03377
1.02289
-0.132594
-0.114848
-0.0590428
0.0143399
0.100802
0.194534
0.295805
0.40384
0.518703
0.640631
0.759365
0.86048
0.94264
1.01122
1.06596
1.08259
1.05223
0.980466
0.908318
0.891341
-0.145846
-0.128443
-0.0724949
0.000809886
0.087183
0.180675
0.28163
0.389203
0.503353
0.624253
0.741734
0.840417
0.916614
0.972568
1.00275
0.994338
0.94395
0.844652
0.75865
0.739382
-0.158811
-0.141818
-0.0858084
-0.0127207
0.0734411
0.166574
0.267074
0.373976
0.487074
0.606367
0.721555
0.816309
0.885428
0.925621
0.921677
0.88924
0.784056
0.663664
0.55757
0.532867
-0.172389
-0.155767
-0.0996885
-0.0268798
0.059006
0.151745
0.251711
0.357797
0.469611
0.586871
0.698918
0.788654
0.850557
0.867704
0.832914
0.748515
0.594015
0.442709
0.315164
0.289444
-0.1871
-0.170707
-0.11445
-0.0418969
0.0436948
0.136057
0.235439
0.340598
0.45096
0.565735
0.673728
0.757859
0.808399
0.798981
0.743648
0.595846
0.395021
0.181578
0.00127664
-0.0453923
-0.20304
-0.186714
-0.130156
-0.0577974
0.0275376
0.11954
0.218299
0.322439
0.431176
0.543115
0.645987
0.724627
0.760271
0.718977
0.630149
0.440191
0.205103
-0.0876749
-0.412956
-0.55775
-0.220285
-0.203903
-0.146913
-0.0746578
0.010479
0.102136
0.20024
0.303278
0.410242
0.519044
0.616179
0.688757
0.707467
0.633988
0.495957
0.285417
0.0448846
-0.306562
-0.903361
-1.48045
-0.23889
-0.222324
-0.164787
-0.0925399
-0.00748945
0.0838646
0.181322
0.283222
0.388336
0.493999
0.585313
0.650027
0.651004
0.557878
0.36519
0.124054
-0.0872188
-0.332607
-0.907152
-2.46173
-0.258853
-0.242113
-0.183869
-0.111556
-0.0265283
0.0645341
0.161311
0.262008
0.36517
0.467454
0.552897
0.608285
0.590382
0.497556
0.267058
0.0203096
-0.136139
-0.18209
-0.1836
-0.58097
-0.280061
-0.263301
-0.204318
-0.132007
-0.0470145
0.0436735
0.139624
0.238895
0.339773
0.438065
0.51816
0.563398
0.528493
0.448942
0.215167
0.00159926
-0.117395
-0.129762
-0.0797679
-0.122261
-0.302496
-0.285811
-0.226121
-0.153927
-0.0690173
0.0211691
0.116115
0.213751
0.312009
0.405808
0.481164
0.517401
0.474448
0.397505
0.180288
0.00769241
-0.0791056
-0.0870848
-0.134519
-0.141654
-0.326044
-0.309312
-0.249195
-0.177327
-0.0925028
-0.00297148
0.090784
0.186524
0.281854
0.371039
0.441835
0.469063
0.426282
0.33671
0.152487
0.017262
-0.0599652
-0.0292331
-0.0524616
-0.0543312
-0.350585
-0.33354
-0.273456
-0.202074
-0.117307
-0.0286568
0.0637228
0.157405
0.249479
0.334087
0.400463
0.417669
0.383863
0.269414
0.117654
0.0230398
-0.0283217
-0.067903
-0.0447699
-0.0524655
-0.375534
-0.358143
-0.298783
-0.228011
-0.143196
-0.0556773
0.0351605
0.12658
0.215058
0.295325
0.357735
0.36444
0.341112
0.205075
0.0775748
0.00983519
0.0193562
-0.0422778
-0.0176249
-0.0236142
-0.400376
-0.382824
-0.324948
-0.25464
-0.169812
-0.0837654
0.00543645
0.0945351
0.179014
0.255233
0.315035
0.312942
0.291488
0.152229
0.0459757
-0.0114975
0.0153213
-0.0166092
-0.0184298
-0.0191077
-0.424463
-0.407205
-0.351037
-0.281266
-0.196837
-0.11247
-0.0249731
0.0617024
0.141954
0.214142
0.272331
0.263889
0.235253
0.106554
0.0260505
-0.0142658
-0.0328367
-0.0214087
-0.0265311
-0.0235782
-0.447177
-0.430635
-0.37608
-0.307018
-0.22382
-0.141218
-0.0554357
0.0287888
0.104847
0.172596
0.230342
0.217082
0.176698
0.0703208
0.0116188
-0.00756724
-0.0581174
-0.0233543
-0.0299496
-0.0229307
-0.467504
-0.452083
-0.399173
-0.33111
-0.250293
-0.169161
-0.0851746
-0.00341548
0.0688856
0.131116
0.189137
0.171596
0.119806
0.0432855
-0.00149806
-0.00226096
-0.0615589
-0.0104361
-0.0192136
-0.0120881
-0.484305
-0.470378
-0.419617
-0.352945
-0.275054
-0.195252
-0.113251
-0.0340446
0.0350618
0.090796
0.14888
0.12597
0.0598631
0.0229504
0.0189565
0.0461313
0.0301019
0.0153881
1.46782e-05
-0.002195
-0.496445
-0.484464
-0.436464
-0.371783
-0.296622
-0.21847
-0.138681
-0.0618589
0.00490297
0.0536154
0.111815
0.0862085
-0.00690906
-0.0113787
0.0708197
0.107681
0.0784806
0.0411949
0.022013
0.00697842
-0.502862
-0.493052
-0.448682
-0.3862
-0.313462
-0.237619
-0.16015
-0.0855645
-0.0204921
0.0223057
0.0761744
0.0548053
-0.0805878
-0.159876
-0.143371
-0.176861
-0.182324
-0.170497
-0.16715
-0.161703
-0.502943
-0.495123
-0.454675
-0.394977
-0.324802
-0.251362
-0.176214
-0.103515
-0.0394604
0.00141633
0.0447734
0.030598
-0.15305
-0.430663
-0.741525
-0.908347
-0.9459
-0.900619
-0.818311
-0.748093
-0.495665
-0.488461
-0.452753
-0.396627
-0.329449
-0.258537
-0.18553
-0.113966
-0.0493081
-0.00609356
0.0287614
0.0243954
-0.170361
-0.527955
-0.995983
-1.21652
-1.2404
-1.15137
-1.06344
-0.989325
-0.477439
-0.469883
-0.440787
-0.390032
-0.326597
-0.25824
-0.187045
-0.115447
-0.0473123
0.00394399
0.040881
0.0627208
-0.0295602
-0.174503
-0.373919
-0.423354
-0.352266
-0.264372
-0.148614
-0.0814121
-0.442395
-0.435531
-0.417532
-0.375053
-0.316085
-0.250232
-0.180208
-0.106956
-0.0320781
0.0357978
0.0918569
0.184435
0.29426
0.509833
0.696352
0.873439
1.03279
1.13427
1.19143
1.23028
-0.396215
-0.392306
-0.386495
-0.35271
-0.299611
-0.235824
-0.165576
-0.0892798
-0.00528959
0.0862877
0.178176
0.330757
0.58199
0.981623
1.36468
1.68355
1.90797
2.04412
2.11073
2.13344
-0.361387
-0.361088
-0.355696
-0.329603
-0.281094
-0.217985
-0.145893
-0.0658497
0.0258044
0.135057
0.253316
0.397884
0.700308
1.09749
1.48454
1.81418
2.05373
2.19343
2.25491
2.27121
-0.329952
-0.330855
-0.325219
-0.308319
-0.263881
-0.200589
-0.125832
-0.0439639
0.048812
0.158673
0.276094
0.375368
0.626742
0.948935
1.25179
1.51112
1.71514
1.83858
1.89545
1.91239
-0.300327
-0.299823
-0.299406
-0.290336
-0.246081
-0.183133
-0.108161
-0.0270548
0.0606712
0.159214
0.268753
0.334813
0.521846
0.780781
1.01636
1.21642
1.37987
1.48272
1.52885
1.54119
-0.277769
-0.276605
-0.282296
-0.271261
-0.226968
-0.164801
-0.09201
-0.0143717
0.0653266
0.148083
0.248501
0.299012
0.422383
0.621227
0.807444
0.957315
1.07632
1.15639
1.19242
1.20196
-0.238562
-0.238931
-0.244779
-0.233345
-0.196042
-0.138563
-0.0718545
-0.00113758
0.0693631
0.136678
0.226262
0.271895
0.345664
0.492442
0.638294
0.749468
0.834387
0.89275
0.918173
0.923978
-0.171023
-0.172834
-0.176344
-0.168635
-0.140569
-0.0956802
-0.0423008
0.0165801
0.0767062
0.13116
0.207263
0.251164
0.294146
0.401081
0.510733
0.590767
0.65045
0.691964
0.709969
0.715974
-0.082593
-0.084455
-0.0863485
-0.0816433
-0.0639905
-0.0358533
-0.000132782
0.0425018
0.0906743
0.134211
0.194528
0.233783
0.261229
0.341476
0.419745
0.475468
0.51871
0.551627
0.564468
0.567926
0.00931127
0.0080194
0.00657611
0.00822259
0.0160076
0.0298835
0.0492856
0.0756679
0.111017
0.142767
0.187902
0.219166
0.238824
0.301387
0.35678
0.393633
0.425436
0.446723
0.456967
0.46048
0.0865879
0.0855774
0.0843135
0.0834554
0.0845484
0.0886513
0.0964441
0.11013
0.132407
0.152841
0.184344
0.210113
0.222611
0.272603
0.311986
0.337568
0.357347
0.370155
0.375747
0.377095
0.142474
0.141837
0.140457
0.13766
0.134159
0.132436
0.133502
0.138581
0.149843
0.162558
0.181829
0.202782
0.213968
0.248775
0.2766
0.295114
0.306493
0.312443
0.313968
0.312991
0.176097
0.175602
0.174272
0.170659
0.164796
0.159978
0.157395
0.157412
0.162123
0.170089
0.181899
0.196022
0.20732
0.227836
0.244823
0.255778
0.262443
0.263627
0.262492
0.261157
0.193379
0.192959
0.191755
0.188236
0.182111
0.176114
0.171532
0.168853
0.170417
0.174651
0.182923
0.191129
0.199945
0.210428
0.218606
0.223126
0.225442
0.225284
0.223515
0.222173
0.200235
0.199891
0.198862
0.196002
0.190832
0.185255
0.180249
0.17632
0.175945
0.176575
0.182032
0.185852
0.189138
0.195242
0.200257
0.203178
0.204247
0.204132
0.202614
0.200434
0.201636
0.201358
0.200496
0.198355
0.19433
0.189903
0.185412
0.181095
0.179341
0.177461
0.179749
0.179913
0.179363
0.183041
0.187787
0.191192
0.192553
0.190303
0.188478
0.186678
0.200267
0.200055
0.199347
0.197811
0.194795
0.191424
0.18769
0.183885
0.181685
0.178595
0.177347
0.175221
0.17423
0.176827
0.180716
0.182873
0.183173
0.181064
0.179162
0.177996
0.197913
0.197744
0.19721
0.196018
0.193733
0.191275
0.188335
0.1852
0.182761
0.17909
0.175985
0.172649
0.171351
0.17503
0.179345
0.181236
0.181944
0.184156
0.184714
0.182724
0.195163
0.195025
0.194648
0.193818
0.192209
0.190514
0.188484
0.185778
0.183565
0.179003
0.174861
0.169594
0.165155
0.173741
0.181665
0.186226
0.191862
0.195669
0.197339
0.194899
0.192516
0.192406
0.192204
0.191545
0.190418
0.189472
0.188641
0.186107
0.18452
0.180019
0.173707
0.168555
0.162103
0.170998
0.182791
0.190404
0.195968
0.196575
0.196322
0.195523
0.189669
0.189626
0.189629
0.189428
0.188974
0.188032
0.188045
0.186984
0.186449
0.18335
0.178795
0.171683
0.166944
0.173857
0.181269
0.185457
0.184839
0.183831
0.184054
0.184061
0.185677
0.185704
0.18585
0.1859
0.186081
0.186047
0.186623
0.187954
0.188115
0.186812
0.187255
0.178194
0.173075
0.180069
0.183871
0.186359
0.190368
0.195459
0.199229
0.197054
0.179096
0.179224
0.17965
0.180562
0.181235
0.183301
0.183676
0.187037
0.191141
0.193003
0.200044
0.191264
0.182112
0.187733
0.195267
0.206714
0.223314
0.232636
0.234732
0.231135
0.169389
0.169515
0.170003
0.171446
0.17304
0.176608
0.179122
0.184405
0.190642
0.197108
0.203699
0.208748
0.196927
0.197363
0.200984
0.208423
0.216598
0.221668
0.22226
0.21765
0.156138
0.156542
0.157348
0.1592
0.161856
0.166481
0.171884
0.178178
0.186101
0.196579
0.205408
0.219011
0.206901
0.193611
0.179023
0.1715
0.158628
0.148525
0.14855
0.14815
0.135932
0.136464
0.137576
0.140123
0.143937
0.150401
0.158913
0.167189
0.178724
0.191325
0.204835
0.204366
0.195463
0.168232
0.14508
0.129535
0.11575
0.102757
0.10313
0.105615
0.106911
0.106959
0.1093
0.113364
0.11832
0.124573
0.131716
0.140257
0.150471
0.155358
0.171235
0.165533
0.159855
0.139371
0.13386
0.1231
0.13368
0.137488
0.121972
0.126677
0.0665247
0.0668481
0.068092
0.0725522
0.0794249
0.0874656
0.0953457
0.10337
0.104858
0.101603
0.118767
0.122408
0.110898
0.101354
0.115274
0.129851
0.143341
0.159853
0.135149
0.137435
0.0231503
0.0230638
0.0228056
0.0233695
0.0253485
0.0279553
0.0292155
0.0269498
0.0225469
0.0344093
0.0500173
0.0651979
0.053584
0.0466315
0.0561792
0.0588857
0.0513713
0.0610085
0.0563508
0.0549207
-0.915833
-0.0584856
0.212741
0.494446
0.682195
0.844247
0.978417
1.11463
1.26146
1.33992
0.0796034
0.494798
0.516386
0.708371
0.838185
0.95423
1.05472
1.14359
1.17243
1.12925
0.468279
0.68745
0.726903
0.865509
0.955391
1.03838
1.10676
1.1579
1.16093
1.17411
0.705403
0.852581
0.888834
0.994377
1.05186
1.11244
1.1584
1.1914
1.20089
1.22427
0.888949
0.99253
1.0224
1.09317
1.1375
1.18041
1.21323
1.23784
1.24795
1.27927
1.03456
1.10508
1.13558
1.18006
1.21668
1.24757
1.27238
1.29326
1.3077
1.33579
1.15537
1.20696
1.23281
1.26148
1.28979
1.31398
1.33428
1.35367
1.36876
1.39513
1.26007
1.29784
1.3191
1.34013
1.36142
1.38115
1.39875
1.41697
1.43191
1.45555
1.35479
1.3837
1.4008
1.41642
1.43287
1.44915
1.46482
1.48183
1.49544
1.51775
1.44357
1.46432
1.47942
1.49278
1.50654
1.52044
1.53398
1.54858
1.56012
1.57977
1.52965
1.54552
1.55947
1.57142
1.58344
1.59509
1.60622
1.61789
1.62554
1.64236
1.61515
1.62807
1.64185
1.65352
1.66408
1.67381
1.68258
1.6908
1.69436
1.70564
1.70442
1.71542
1.72889
1.7381
1.74553
1.75273
1.75991
1.76643
1.76746
1.77487
1.80285
1.80759
1.81562
1.82011
1.8234
1.82786
1.83385
1.84159
1.84543
1.85531
1.91615
1.90246
1.89502
1.88941
1.88675
1.88815
1.8946
1.90699
1.92178
1.95144
2.03709
1.98134
1.95048
1.9334
1.92525
1.92522
1.93396
1.95351
1.98547
2.05467
)
;

boundaryField
{
    wall-4
    {
        type            zeroGradient;
    }
    pressure-outlet-7
    {
        type            fixedValue;
        value           uniform 0;
    }
    velocity-inlet-6
    {
        type            zeroGradient;
    }
    velocity-inlet-5
    {
        type            zeroGradient;
    }
    frontAndBackPlanes
    {
        type            empty;
    }
}


// ************************************************************************* //
