/*--------------------------------*- C++ -*----------------------------------*\
| =========                 |                                                 |
| \\      /  F ield         | OpenFOAM: The Open Source CFD Toolbox           |
|  \\    /   O peration     | Version:  v2012                                 |
|   \\  /    A nd           | Website:  www.openfoam.com                      |
|    \\/     M anipulation  |                                                 |
\*---------------------------------------------------------------------------*/
FoamFile
{
    version     2.0;
    format      ascii;
    class       surfaceScalarField;
    location    "35";
    object      phi;
}
// * * * * * * * * * * * * * * * * * * * * * * * * * * * * * * * * * * * * * //

dimensions      [0 3 -1 0 0 0 0];
oriented        oriented;


internalField   nonuniform List<scalar> 
4262
(
0.107142
0.470846
0.0955875
0.70514
0.0694152
0.858475
0.0474359
1.02074
0.031108
1.21484
0.0198879
1.44944
0.01241
1.73334
0.00719983
2.07625
0.00332426
2.48912
-0.000239296
2.98586
-0.00378726
2.98584
-0.00765823
2.48911
-0.012857
2.07624
-0.0201825
1.73319
-0.0311829
1.44922
-0.0473199
1.21465
-0.0691573
1.0206
-0.0953655
0.858511
-0.10711
0.70533
0.470878
0.112883
0.357963
0.135287
0.682736
0.120353
0.87341
0.0977252
1.04337
0.0744174
1.23815
0.0527817
1.47108
0.0345415
1.75158
0.0203846
2.0904
0.0090252
2.50048
-0.00108955
2.99597
-0.0112584
2.99601
-0.0224387
2.50029
-0.0363198
2.09012
-0.0542721
1.75114
-0.0759249
1.47087
-0.0995096
1.23824
-0.122468
1.04356
-0.136513
0.872556
-0.113397
0.682215
0.357481
0.09211
0.265853
0.125115
0.649731
0.121344
0.877181
0.105166
1.05955
0.0864663
1.25685
0.0672853
1.49026
0.048447
1.77042
0.0305272
2.10832
0.0141581
2.51685
-0.00167703
3.01181
-0.0173136
3.01165
-0.0333734
2.51635
-0.050944
2.10769
-0.0696143
1.76981
-0.0882961
1.48955
-0.105947
1.25589
-0.120675
1.05829
-0.125427
0.877308
-0.0923773
0.649165
0.265104
0.0640498
0.201803
0.104935
0.608846
0.106736
0.87538
0.0954184
1.07087
0.0816231
1.27065
0.0669513
1.50493
0.0507263
1.78664
0.033494
2.12556
0.015836
2.53451
-0.00268535
3.03033
-0.0209139
3.02987
-0.0379901
2.53343
-0.0545841
2.12428
-0.0700587
1.78529
-0.0840261
1.50352
-0.0976666
1.26953
-0.109221
1.06984
-0.10644
0.874526
-0.0646382
0.607364
0.200465
0.0374493
0.164354
0.080715
0.56558
0.0910949
0.865
0.083999
1.07796
0.0716336
1.28301
0.0599814
1.51658
0.0471042
1.79952
0.0323203
2.14034
0.0155629
2.55126
-0.0034498
3.04934
-0.0222632
3.04869
-0.0386127
2.54978
-0.0527851
2.13845
-0.0649895
1.79749
-0.0761364
1.51467
-0.0879277
1.28132
-0.0942502
1.07616
-0.0827409
0.863017
-0.0381875
0.56281
0.162278
0.0195459
0.144808
0.0574752
0.527651
0.0730339
0.849441
0.0709871
1.08001
0.0622226
1.29178
0.0514087
1.52739
0.0402421
1.81069
0.0277785
2.1528
0.0128695
2.56617
-0.00468489
3.06689
-0.0218824
3.06589
-0.0359107
2.56381
-0.0472416
2.14978
-0.057489
1.80774
-0.0674236
1.5246
-0.0752329
1.28913
-0.0763198
1.07725
-0.0595109
0.846208
-0.0202266
0.523526
0.142051
0.0106846
0.134123
0.0424414
0.495894
0.0585955
0.833287
0.0589065
1.0797
0.0527345
1.29795
0.0434317
1.5367
0.033444
1.82068
0.022481
2.16377
0.00981225
2.57884
-0.00561451
3.08232
-0.0207074
3.08098
-0.0325106
2.57561
-0.0424716
2.15975
-0.0512274
1.81649
-0.059469
1.53285
-0.0645171
1.29418
-0.062955
1.07569
-0.0450443
0.828297
-0.0114733
0.489955
0.130578
0.00653502
0.127588
0.032914
0.469515
0.0492769
0.816924
0.0509497
1.07803
0.045994
1.3029
0.0377282
1.54496
0.0282662
1.83014
0.0177186
2.17431
0.00604517
2.59051
-0.00754345
3.09591
-0.0205585
3.09399
-0.0310244
2.58608
-0.0400732
2.16879
-0.0478443
1.82426
-0.0545831
1.53958
-0.0579774
1.29757
-0.0546823
1.07239
-0.0361945
0.80981
-0.00756494
0.461325
0.123013
0.00474531
0.122843
0.0266558
0.447605
0.0425668
0.801013
0.0449732
1.07562
0.0407623
1.30712
0.0335685
1.55216
0.0248707
1.83884
0.0148328
2.18435
0.00356874
2.60178
-0.00892762
3.10841
-0.0207463
3.10581
-0.030561
2.59589
-0.0388459
2.17708
-0.0460541
1.83147
-0.0517298
1.54526
-0.0542189
1.30006
-0.0495589
1.06773
-0.0306861
0.790937
-0.00597989
0.436619
0.117033
0.00376867
0.119074
0.0216688
0.429704
0.0369748
0.785707
0.0400551
1.07254
0.0361769
1.31099
0.0293462
1.55899
0.0210534
1.84713
0.0112851
2.19412
0.000260371
2.6128
-0.0116361
3.1203
-0.0227796
3.11696
-0.0318551
2.60497
-0.0394035
2.18463
-0.0451429
1.83721
-0.0494773
1.54959
-0.0508967
1.30148
-0.0450964
1.06193
-0.0264118
0.772252
-0.00525499
0.415462
0.111778
0.00287269
0.116202
0.0169189
0.415658
0.0307145
0.771912
0.0339751
1.06928
0.030501
1.31447
0.0242372
1.56525
0.0165565
1.85481
0.00741437
2.20326
-0.00292239
2.62314
-0.013963
3.13134
-0.0241324
3.12712
-0.0323421
2.61318
-0.0387416
2.19103
-0.0438148
1.84229
-0.047479
1.55326
-0.0481568
1.30216
-0.0412694
1.05505
-0.0228613
0.753844
-0.00474713
0.397348
0.107031
0.00205872
0.114143
0.0126632
0.405054
0.0247493
0.759826
0.0280327
1.06599
0.0246713
1.31783
0.0186177
1.57131
0.0112302
1.8622
0.00273426
2.21176
-0.00689856
2.63277
-0.0174634
3.14191
-0.0267325
3.13639
-0.0336865
2.62013
-0.0388622
2.1962
-0.0427884
1.84621
-0.0454455
1.55592
-0.0451105
1.30182
-0.0373552
1.04729
-0.0198099
0.736299
-0.00429835
0.381837
0.102733
0.0013439
0.112799
0.00920506
0.397193
0.0194993
0.749531
0.0220507
1.06344
0.0184162
1.32146
0.0123698
1.57735
0.0053299
1.86924
-0.00256654
2.21965
-0.0115244
2.64173
-0.0215548
3.15194
-0.0301085
3.14495
-0.0356359
2.62566
-0.0392622
2.19983
-0.0421946
1.84914
-0.0440553
1.55778
-0.0431869
1.30096
-0.0348122
1.03892
-0.0178212
0.719308
-0.00409799
0.368113
0.0986348
0.000652559
0.112147
0.00577846
0.392067
0.0137158
0.741594
0.0159749
1.06118
0.0121729
1.32527
0.00564223
1.58388
-0.00183307
1.87671
-0.00974115
2.22756
-0.0181601
2.65015
-0.0269539
3.16073
-0.0337836
3.15178
-0.0378128
2.62969
-0.0404779
2.20249
-0.0428763
1.85154
-0.0437373
1.55864
-0.0417614
1.29898
-0.0325302
1.02969
-0.0162363
0.703014
-0.00403213
0.355909
0.0946027
-0.000252143
0.112399
0.00178766
0.390027
0.00746572
0.735916
0.00859128
1.06006
0.00486519
1.32899
-0.00133823
1.59009
-0.00868287
1.88406
-0.0166998
2.23558
-0.0248738
2.65832
-0.0325472
3.16841
-0.0382263
3.15746
-0.0414448
2.63291
-0.0432324
2.20428
-0.044192
1.8525
-0.043659
1.5581
-0.0405406
1.29586
-0.0305396
1.01968
-0.0147733
0.687247
-0.00382645
0.344962
0.0907763
-0.00128016
0.113679
-0.0018689
0.390616
0.00119107
0.732856
0.00151907
1.05973
-0.00259161
1.3331
-0.00894833
1.59644
-0.0165096
1.89162
-0.0247194
2.24379
-0.0332135
2.66682
-0.0407688
3.17596
-0.0454955
3.16218
-0.0473593
2.63477
-0.0477564
2.20468
-0.0468292
1.85158
-0.0448839
1.55616
-0.0398952
1.29087
-0.0287169
1.00851
-0.0135991
0.67213
-0.00365753
0.335021
0.0871187
-0.00253999
0.116219
-0.00530691
0.393383
-0.00628633
0.733836
-0.00766684
1.06111
-0.0118539
1.33729
-0.0180656
1.60265
-0.0255747
1.89913
-0.034056
2.25227
-0.0427153
2.67548
-0.0500022
3.18325
-0.0538625
3.16604
-0.0544052
2.63531
-0.0527181
2.20299
-0.0501078
1.84896
-0.0465959
1.55265
-0.0401715
1.28445
-0.0282165
0.996551
-0.0133489
0.657262
-0.00369573
0.325368
0.083423
-0.00376384
0.119983
-0.00974908
0.399368
-0.0137522
0.737839
-0.0171438
1.0645
-0.0224423
1.34259
-0.0295921
1.6098
-0.0378467
1.90738
-0.0466294
2.26105
-0.0550441
2.68389
-0.061559
3.18976
-0.0638477
3.16833
-0.0624504
2.63392
-0.0593174
2.19986
-0.0554069
1.84505
-0.0499632
1.5472
-0.0416257
1.27611
-0.0283932
0.983319
-0.0136822
0.642551
-0.00395488
0.31564
0.0794681
-0.00528092
0.125264
-0.0148363
0.408923
-0.0226842
0.745687
-0.0285808
1.0704
-0.0348355
1.34884
-0.0430623
1.61803
-0.0523666
1.91669
-0.0619823
2.27067
-0.070707
2.69262
-0.0761706
3.19523
-0.076135
3.1683
-0.072568
2.63035
-0.067147
2.19444
-0.060913
1.83882
-0.0535179
1.53981
-0.0438539
1.26645
-0.0299032
0.969368
-0.0148599
0.627508
-0.00434864
0.305129
0.0751195
-0.00644232
0.131706
-0.0186295
0.42111
-0.0302773
0.757334
-0.0392155
1.07934
-0.0479236
1.35755
-0.0580927
1.6282
-0.0690015
1.9276
-0.0798777
2.28154
-0.0887932
2.70153
-0.0933847
3.19982
-0.0917923
3.1667
-0.0860997
2.62466
-0.0784366
2.18677
-0.0703421
1.83073
-0.0612281
1.53069
-0.049421
1.25464
-0.0334815
0.953428
-0.0170632
0.61109
-0.00503024
0.293096
0.0700892
-0.00865212
0.140358
-0.024833
0.437291
-0.0409247
0.773426
-0.0531927
1.09161
-0.0639222
1.36828
-0.0761687
1.64045
-0.089116
1.94054
-0.101481
2.29391
-0.111496
2.71155
-0.1161
3.20442
-0.11203
3.16263
-0.103234
2.61586
-0.0928101
2.17635
-0.0818384
1.81975
-0.070344
1.5192
-0.0567248
1.24102
-0.0390492
0.935753
-0.0203501
0.59239
-0.00594878
0.278695
0.0641405
-0.010885
0.151243
-0.0310496
0.457456
-0.0516485
0.794025
-0.0681075
1.10806
-0.0830731
1.38325
-0.0988787
1.65625
-0.114344
1.95601
-0.128534
2.3081
-0.138472
2.72148
-0.140976
3.20693
-0.134599
3.15626
-0.123625
2.60489
-0.110918
2.16364
-0.0982586
1.8071
-0.0847669
1.50571
-0.0680191
1.22427
-0.0464739
0.914208
-0.024178
0.570095
-0.00699547
0.261512
0.057145
-0.0154445
0.166688
-0.0424769
0.484488
-0.0688868
0.820435
-0.0900191
1.1292
-0.108428
1.40165
-0.127274
1.6751
-0.145806
1.97454
-0.161639
2.32393
-0.172177
2.73202
-0.174059
3.20881
-0.165172
3.14737
-0.15023
2.58995
-0.133656
2.14707
-0.116975
1.79041
-0.0998482
1.48858
-0.079562
1.20399
-0.0544999
0.889145
-0.028395
0.54399
-0.00804002
0.241157
0.049105
-0.0192803
0.185968
-0.054241
0.519449
-0.089042
0.855236
-0.116278
1.15643
-0.140421
1.4258
-0.164421
1.6991
-0.185662
1.99578
-0.202776
2.34105
-0.212505
2.74175
-0.210819
3.20712
-0.197186
3.13374
-0.179078
2.57184
-0.160121
2.12811
-0.141141
1.77143
-0.120756
1.4682
-0.0953462
1.17858
-0.0642518
0.858051
-0.0326921
0.51243
-0.00888583
0.217351
0.0402191
-0.032595
0.218563
-0.0797421
0.566596
-0.122829
0.898323
-0.156833
1.19044
-0.186715
1.45568
-0.213442
1.72583
-0.236214
2.01855
-0.25314
2.35797
-0.261258
2.74987
-0.256935
3.2028
-0.240618
3.11742
-0.218726
2.54995
-0.194623
2.10401
-0.169694
1.7465
-0.14313
1.44163
-0.111717
1.14716
-0.0748989
0.821233
-0.0379518
0.475483
-0.00998654
0.189386
0.0302326
-0.0469718
0.265535
-0.117768
0.637392
-0.176114
0.956669
-0.216345
1.23067
-0.250148
1.48948
-0.278858
1.75454
-0.300892
2.04059
-0.315131
2.37221
-0.318426
2.75316
-0.307279
3.19165
-0.283226
3.09337
-0.255473
2.52219
-0.227723
2.07626
-0.200177
1.71896
-0.169599
1.41105
-0.131596
1.10916
-0.0867979
0.776434
-0.0414554
0.43014
-0.00983191
0.157762
0.0204007
-0.0328435
0.298378
-0.092453
0.697002
-0.146057
1.01027
-0.19062
1.27523
-0.231928
1.53079
-0.267275
1.78988
-0.301226
2.07454
-0.331474
2.40246
-0.353652
2.77534
-0.361879
3.19988
-0.352071
3.08356
-0.329991
2.50011
-0.297788
2.04406
-0.25537
1.67654
-0.205868
1.36155
-0.15006
1.05335
-0.0896067
0.715981
-0.0369957
0.37753
-0.00813014
0.128897
0.0122706
-0.0113806
0.309759
-0.0429493
0.72857
-0.0810839
1.04841
-0.117555
1.3117
-0.153178
1.56641
-0.186838
1.82354
-0.218308
2.10601
-0.244901
2.42905
-0.262736
2.79318
-0.265322
3.20246
-0.248699
3.06694
-0.217808
2.46922
-0.179216
2.00546
-0.139353
1.63668
-0.0984414
1.32064
-0.0577039
1.01262
-0.0241352
0.682412
-0.00462374
0.358018
0.000179852
0.124093
0.0124504
0.00184842
0.30791
-0.0202404
0.750659
-0.0479091
1.07608
-0.076288
1.34008
-0.105031
1.59516
-0.133973
1.85248
-0.161727
2.13376
-0.185115
2.45244
-0.20024
2.8083
-0.201259
3.20348
-0.18362
3.0493
-0.154089
2.43969
-0.120635
1.97201
-0.0830221
1.59906
-0.0434448
1.28106
-0.00914336
0.978315
0.0112509
0.662018
0.0129125
0.356357
0.00495115
0.132054
0.0174016
0.00238088
0.305529
-0.00873441
0.761775
-0.0288235
1.09617
-0.0522901
1.36355
-0.0763571
1.61922
-0.100863
1.87699
-0.124659
2.15756
-0.144622
2.47241
-0.156635
2.82031
-0.154341
3.20119
-0.135172
3.03013
-0.108187
2.41271
-0.0749242
1.93875
-0.0392743
1.56341
-0.00926909
1.25106
0.0120589
0.956987
0.0214591
0.652618
0.0173324
0.360483
0.00614335
0.143243
0.0235449
0.00466394
0.300865
-0.00334441
0.769783
-0.020343
1.11316
-0.039597
1.3828
-0.0597776
1.6394
-0.080818
1.89803
-0.101505
2.17824
-0.11915
2.49005
-0.129906
2.83107
-0.128494
3.19978
-0.112069
3.0137
-0.0857748
2.38641
-0.0563947
1.90937
-0.0282375
1.53526
-0.00194167
1.22476
0.0170704
0.937975
0.0230733
0.646615
0.0167599
0.366797
0.00562657
0.154377
0.0291715
0.00563742
0.295228
0.000334474
0.775086
-0.014819
1.12832
-0.0324923
1.40047
-0.0505882
1.6575
-0.0692132
1.91666
-0.0875729
2.1966
-0.103264
2.50574
-0.112484
2.84029
-0.110086
3.19738
-0.093879
2.9975
-0.0716667
2.3642
-0.0466681
1.88437
-0.020673
1.50926
0.000931907
1.20316
0.0154236
0.923483
0.0200386
0.642
0.0133323
0.373503
0.00419369
0.163515
0.0333652
0.00383052
0.291398
-7.1755e-05
0.778988
-0.0129463
1.14119
-0.0288809
1.41641
-0.0455388
1.67416
-0.0627211
1.93384
-0.079818
2.2137
-0.0947571
2.52068
-0.104385
2.84992
-0.102913
3.19591
-0.0884543
2.98304
-0.0669881
2.34273
-0.0441813
1.86156
-0.0237087
1.48879
-0.00370208
1.18315
0.0096171
0.910164
0.0131822
0.638435
0.00921379
0.377471
0.0029141
0.169815
0.0362793
0.00251647
0.288881
-0.000878567
0.782383
-0.012638
1.15295
-0.0275668
1.43134
-0.0433627
1.68995
-0.0595685
1.95004
-0.0757448
2.22988
-0.0900397
2.53498
-0.0988101
2.85869
-0.0974328
3.19453
-0.0851212
2.97073
-0.0671204
2.32473
-0.0467929
1.84123
-0.0257578
1.46775
-0.0100072
1.1674
0.0011131
0.899043
0.00546449
0.634083
0.00321243
0.379723
0.00121211
0.171815
0.0374914
-0.000150708
0.289032
-0.00374025
0.785973
-0.0141714
1.16338
-0.0275233
1.44469
-0.0425467
1.70498
-0.058301
1.9658
-0.0742718
2.24585
-0.0889377
2.54964
-0.099568
2.86932
-0.10224
3.1972
-0.0908477
2.95933
-0.0724615
2.30635
-0.0524721
1.82124
-0.0355565
1.45084
-0.0206033
1.15245
-0.0102345
0.888675
-0.0049649
0.628814
-0.00267843
0.377437
-0.000761187
0.169898
0.0367302
-0.000711756
0.289744
-0.00576242
0.791023
-0.0156916
1.17331
-0.0283225
1.45732
-0.042815
1.71947
-0.058129
1.98111
-0.0738483
2.26157
-0.088406
2.5642
-0.0985424
2.87946
-0.0991066
3.19777
-0.0888776
2.9491
-0.0740088
2.29148
-0.0587983
1.80603
-0.0423169
1.43436
-0.0284357
1.13857
-0.0172132
0.877452
-0.00967963
0.62128
-0.00585287
0.37361
-0.0017259
0.165771
0.0350043
-0.00263667
0.29238
-0.00799035
0.796377
-0.0173465
1.18267
-0.0292896
1.46926
-0.043178
1.73336
-0.058235
1.99617
-0.0740556
2.27739
-0.089343
2.57949
-0.102057
2.89217
-0.10823
3.20394
-0.101941
2.94281
-0.0857287
2.27527
-0.0660731
1.78638
-0.0509434
1.41923
-0.0361606
1.12378
-0.0248481
0.866139
-0.0162611
0.612693
-0.00792515
0.365274
-0.00237292
0.160219
0.0326314
-0.00391596
0.296296
-0.00955123
0.802012
-0.0188007
1.19192
-0.0304234
1.48089
-0.0438411
1.74678
-0.0585969
2.01092
-0.0745663
2.29336
-0.0904988
2.59542
-0.103378
2.90505
-0.108566
3.20913
-0.1028
2.93705
-0.090898
2.26336
-0.0761135
1.77159
-0.0576363
1.40075
-0.0432955
1.10944
-0.0301093
0.852953
-0.0190093
0.601593
-0.0101899
0.356455
-0.00296029
0.152989
0.0296711
-0.00440515
0.300701
-0.0107497
0.808357
-0.0198865
1.20105
-0.0311253
1.49212
-0.0441874
1.75984
-0.0588029
2.02554
-0.0748827
2.30944
-0.091261
2.6118
-0.106144
2.91993
-0.117236
3.22022
-0.115658
2.93547
-0.101344
2.24905
-0.0814491
1.7517
-0.0648818
1.38418
-0.0486513
1.09321
-0.0355382
0.83984
-0.0235825
0.589638
-0.010957
0.343829
-0.00303574
0.145068
0.0266353
-0.00449766
0.305199
-0.011436
0.815295
-0.0206965
1.21031
-0.0317658
1.50319
-0.0445091
1.77258
-0.0588279
2.03986
-0.0749062
2.32551
-0.0919602
2.62885
-0.108227
2.9362
-0.118954
3.23094
-0.117765
2.93428
-0.108416
2.2397
-0.0933933
1.73668
-0.0720928
1.36288
-0.0545341
1.07565
-0.0382053
0.823511
-0.0236625
0.575095
-0.01163
0.331797
-0.00292905
0.136367
0.0237063
-0.00455056
0.30975
-0.0118676
0.822612
-0.0210005
1.21945
-0.0317965
1.51399
-0.0443067
1.78509
-0.0584964
2.05405
-0.0746715
2.34169
-0.0922327
2.64641
-0.109801
2.95377
-0.124863
3.24601
-0.130202
2.93962
-0.119794
2.22929
-0.0996723
1.71655
-0.0798979
1.34311
-0.0582073
1.05396
-0.0409962
0.8063
-0.0261983
0.560297
-0.0111703
0.316769
-0.00250583
0.127703
0.0212005
-0.00460175
0.314351
-0.0120686
0.830079
-0.0211281
1.22851
-0.0317552
1.52462
-0.0439993
1.79734
-0.0579295
2.06798
-0.0740632
2.35782
-0.0920655
2.66441
-0.110793
2.9725
-0.126783
3.262
-0.132151
2.94499
-0.126216
2.22336
-0.11206
1.7024
-0.0875333
1.31858
-0.0631302
1.02956
-0.0394295
0.7826
-0.0205642
0.541432
-0.0088841
0.305089
-0.00167116
0.12049
0.0195293
-0.00463518
0.318986
-0.0120806
0.837525
-0.0208444
1.23727
-0.031156
1.53493
-0.0431634
1.80934
-0.0569595
2.08177
-0.0730826
2.37395
-0.0913524
2.68268
-0.111048
2.99219
-0.129929
3.28088
-0.141711
2.95677
-0.1377
2.21935
-0.11922
1.68392
-0.0957862
1.29515
-0.0655435
0.999317
-0.0385651
0.755621
-0.016768
0.519634
-0.00398117
0.292302
-0.00213124
0.11864
0.0173981
-0.00459671
0.323583
-0.0119438
0.844872
-0.0205101
1.24584
-0.0305635
1.54498
-0.042242
1.82102
-0.0557282
2.09526
-0.0716983
2.38992
-0.0901886
2.70117
-0.110793
3.01279
-0.131471
3.30156
-0.143517
2.96882
-0.143609
2.21944
-0.132779
1.67309
-0.105865
1.26823
-0.0715279
0.964979
-0.0301237
0.714217
0.00811667
0.481394
0.0268318
0.273587
0.0225616
0.12291
0.0399596
-0.0044704
0.328054
-0.0116398
0.852041
-0.0198572
1.25406
-0.0295233
1.55465
-0.0408742
1.83237
-0.0541399
2.10853
-0.0699708
2.40575
-0.0885465
2.71975
-0.109669
3.03392
-0.131813
3.3237
-0.148191
2.98519
-0.153438
2.22468
-0.140929
1.66058
-0.116856
1.24416
-0.0759571
0.92408
-0.0295829
0.667843
0.0215307
0.430281
0.0389106
0.256207
0.016978
0.144843
0.0569376
-0.00427002
0.332324
-0.011249
0.85902
-0.0192213
1.26203
-0.0285516
1.56398
-0.0395322
1.84335
-0.0524123
2.12141
-0.0679807
2.42132
-0.0865095
2.73828
-0.10815
3.05556
-0.132523
3.34807
-0.15115
3.00382
-0.158447
2.23198
-0.155563
1.6577
-0.13246
1.22106
-0.0919918
0.883612
-0.0221879
0.598039
0.0810028
0.32709
0.173919
0.16329
0.176275
0.142487
0.233213
-0.00410731
0.336431
-0.0109544
0.865867
-0.0187855
1.26986
-0.0280504
1.57324
-0.0392088
1.85451
-0.0525816
2.13478
-0.0690441
2.43778
-0.0891317
2.75837
-0.113466
3.07989
-0.141303
3.37591
-0.165161
3.02768
-0.180845
2.24767
-0.179812
1.65666
-0.163007
1.20425
-0.120402
0.841007
-0.0722705
0.549908
-0.10152
0.356339
-0.362217
0.423988
-0.93204
0.712309
0.89604
-1.59487
-0.00390542
0.340336
-0.0105581
0.87252
-0.018233
1.27753
-0.0273574
1.58237
-0.0383689
1.86552
-0.0517611
2.14817
-0.068565
2.45458
-0.0894874
2.77929
-0.115509
3.10591
-0.147706
3.40811
-0.178949
3.05892
-0.198604
2.26732
-0.214587
1.67265
-0.212599
1.20227
-0.200846
0.829253
-0.281653
0.630715
-0.690328
0.765015
-1.42078
1.15444
-2.03304
1.32457
1.21897
-2.35598
-0.00368865
0.344025
-0.0100475
0.878879
-0.0174169
1.2849
-0.0262879
1.59124
-0.0371708
1.87641
-0.0506621
2.16166
-0.0678136
2.47173
-0.0896166
2.80109
-0.1176
3.1339
-0.152709
3.44322
-0.187097
3.09331
-0.218382
2.29861
-0.238859
1.69312
-0.243882
1.20729
-0.331542
0.916913
-0.749415
1.04859
-1.52001
1.5356
-2.09732
1.73176
-2.33991
1.56716
1.33464
-2.45557
-0.00347435
0.347499
-0.00950567
0.88491
-0.0166386
1.29204
-0.0253111
1.59991
-0.0359836
1.88708
-0.0494198
2.1751
-0.0667984
2.48911
-0.0892983
2.82359
-0.118682
3.16328
-0.157651
3.48219
-0.201582
3.13724
-0.237297
2.33432
-0.275141
1.73097
-0.364144
1.29629
-0.695961
1.24873
-1.42072
1.77334
-2.01673
2.13162
-2.25913
1.97416
-2.37396
1.68199
1.40049
-2.43981
-0.00320378
0.350703
-0.00883272
0.890539
-0.0155782
1.29878
-0.0239252
1.60826
-0.0344674
1.89762
-0.0479131
2.18854
-0.0655037
2.5067
-0.0886906
2.84678
-0.119899
3.19449
-0.16259
3.52488
-0.210248
3.1849
-0.260009
2.38408
-0.312021
1.78298
-0.490556
1.47483
-1.08135
1.83952
-1.77213
2.46413
-2.10115
2.46064
-2.25242
2.12542
-2.33575
1.76532
1.46643
-2.4017
-0.00310811
0.353811
-0.0086385
0.896069
-0.0154076
1.30555
-0.0238369
1.61669
-0.0345872
1.90837
-0.0482398
2.2022
-0.0662758
2.52474
-0.0903033
2.87081
-0.122946
3.22713
-0.168552
3.57048
-0.225708
3.24206
-0.278731
2.4371
-0.3727
1.87695
-0.751038
1.85316
-1.4762
2.56469
-1.95829
2.94621
-2.16034
2.6627
-2.26777
2.23285
-2.34508
1.84263
1.53086
-2.40951
-0.00317023
0.356981
-0.00892087
0.90182
-0.0159762
1.31261
-0.0247768
1.62549
-0.0360561
1.91965
-0.050395
2.21654
-0.0692932
2.54364
-0.0945326
2.89605
-0.129276
3.26188
-0.179443
3.62065
-0.238389
3.301
-0.30647
2.50519
-0.497477
2.06796
-1.03716
2.39284
-1.66577
3.1933
-1.94906
3.2295
-2.09797
2.81162
-2.21327
2.34815
-2.30742
1.93679
1.5936
-2.37016
-0.00318148
0.360163
-0.00922384
0.907862
-0.0167695
1.32015
-0.0261195
1.63484
-0.0378773
1.93141
-0.0527999
2.23146
-0.0724969
2.56333
-0.098916
2.92247
-0.135284
3.29824
-0.187296
3.67266
-0.253739
3.36744
-0.345971
2.59742
-0.621045
2.34303
-1.24908
3.02088
-1.74611
3.69032
-1.95613
3.43952
-2.09902
2.9545
-2.22476
2.47389
-2.33772
2.04975
1.65323
-2.39735
-0.00313097
0.363294
-0.00940965
0.914141
-0.017302
1.32804
-0.0270832
1.64462
-0.0394293
1.94375
-0.055108
2.24714
-0.0757376
2.58396
-0.103365
2.95009
-0.141663
3.33654
-0.198137
3.72914
-0.268248
3.43755
-0.392613
2.72178
-0.768589
2.71901
-1.3966
3.64889
-1.7585
4.05223
-1.93437
3.61539
-2.03933
3.05946
-2.13109
2.56565
-2.20113
2.11979
1.64702
-2.19492
-0.00300862
0.366303
-0.00953911
0.920671
-0.0180107
1.33652
-0.028443
1.65505
-0.0413364
1.95665
-0.0576212
2.26342
-0.0790393
2.60538
-0.107853
2.97891
-0.147815
3.3765
-0.204503
3.78582
-0.284589
3.51764
-0.454239
2.89143
-0.895149
3.15991
-1.45054
4.20428
-1.71821
4.3199
-1.87554
3.77272
-1.97194
3.15587
-1.97671
2.57042
-1.91286
2.05594
1.62
-1.88585
-0.00270451
0.369007
-0.0094929
0.92746
-0.0182339
1.34526
-0.0289913
1.66581
-0.0423749
1.97003
-0.0591692
2.28022
-0.0810501
2.62726
-0.110142
3.008
-0.150293
3.41665
-0.207873
3.8434
-0.294866
3.60463
-0.49495
3.09152
-0.970289
3.63525
-1.41805
4.65204
-1.59112
4.49297
-1.66141
3.843
-1.66871
3.16317
-1.52431
2.42602
-1.0269
1.55853
0.593106
-0.00229304
0.3713
-0.00920621
0.934373
-0.0185936
1.35464
-0.0302226
1.67744
-0.0445243
1.98433
-0.0624605
2.29815
-0.0859833
2.65079
-0.117662
3.03968
-0.161798
3.46079
-0.223977
3.90558
-0.326022
3.70668
-0.576158
3.34166
-1.10432
4.16342
-1.47128
5.019
-1.5742
4.5959
-1.57474
3.84354
-1.47568
3.06411
-1.23889
2.18923
-0.643208
0.962845
-0.0501025
-0.00183439
0.373134
-0.00863173
0.94117
-0.0181966
1.36421
-0.0303086
1.68955
-0.0455631
1.99959
-0.0648827
2.31747
-0.0903096
2.67621
-0.124454
3.07382
-0.172293
3.50863
-0.242622
3.97591
-0.36533
3.82939
-0.667597
3.64392
-1.21689
4.71271
-1.4896
5.2917
-1.55296
4.65926
-1.53479
3.82537
-1.33576
2.86509
-0.796348
1.64981
-0.115225
0.281723
-0.165328
-0.00111355
0.374248
-0.00752757
0.947584
-0.0176311
1.37431
-0.0306695
1.70259
-0.0467317
2.01565
-0.0670783
2.33782
-0.0940331
2.70317
-0.13077
3.11056
-0.182339
3.5602
-0.25797
4.05154
-0.401283
3.9727
-0.761257
4.0039
-1.2973
5.24875
-1.48258
5.47698
-1.51294
4.68963
-1.43097
3.74339
-1.11442
2.54853
-0.32637
0.861769
0.029422
-0.0740689
-0.135906
-0.00028757
0.374536
-0.0058584
0.953155
-0.0158798
1.38433
-0.0292041
1.71591
-0.0460257
2.03247
-0.0676759
2.35947
-0.0964272
2.73192
-0.135244
3.14938
-0.189478
3.61443
-0.274865
4.13693
-0.445615
4.14345
-0.861541
4.41982
-1.3358
5.72301
-1.45948
5.60066
-1.46781
4.69795
-1.25998
3.53557
-0.710191
1.99874
-0.0674187
0.218997
0.0333591
-0.174847
-0.102547
0.00156279
0.372973
-0.00276269
0.957481
-0.0133195
1.39489
-0.0276907
1.73028
-0.0450083
2.04979
-0.0674056
2.38187
-0.0972838
2.7618
-0.138093
3.19018
-0.194724
3.67106
-0.286978
4.22918
-0.479587
4.33606
-0.944855
4.88509
-1.33371
6.11187
-1.40555
5.6725
-1.36838
4.66078
-1.08256
3.24976
-0.347383
1.26356
-0.00680722
-0.121579
0.0107425
-0.192397
-0.0918042
0.00338903
0.369584
0.000976309
0.959893
-0.00934472
1.40521
-0.0233844
1.74432
-0.0409759
2.06738
-0.0644303
2.40532
-0.0955563
2.79292
-0.137478
3.23211
-0.196159
3.72974
-0.296611
4.32963
-0.51369
4.55314
-1.00342
5.37482
-1.28925
6.3977
-1.32945
5.71271
-1.21483
4.54615
-0.808936
2.84386
-0.0937395
0.548363
0.0446599
-0.259978
0.0256684
-0.173405
-0.0661358
0.00573803
0.363846
0.00485841
0.960773
-0.00419372
1.41426
-0.018181
1.75831
-0.0358594
2.08506
-0.0594306
2.42889
-0.0907997
2.82429
-0.13379
3.2751
-0.194049
3.79
-0.299745
4.43533
-0.536274
4.78966
-1.01439
5.85293
-1.21771
6.60102
-1.23944
5.73444
-1.04192
4.34863
-0.489761
2.2917
0.000558819
0.0580431
0.0152644
-0.274684
0.0167097
-0.17485
-0.0494261
0.00848224
0.355364
0.0103368
0.958919
0.00371499
1.42089
-0.00868826
1.77071
-0.0264446
2.10282
-0.0502262
2.45267
-0.0816301
2.8557
-0.123898
3.31736
-0.184389
3.85049
-0.294467
4.54541
-0.547523
5.04272
-0.989791
6.2952
-1.12368
6.73491
-1.10505
5.71581
-0.869127
4.1127
-0.306415
1.72899
-0.0693544
-0.179018
-0.0412067
-0.302832
-0.0117236
-0.204333
-0.0611497
0.0126847
0.342679
0.0188643
0.952739
0.0143217
1.42543
0.0031622
1.78187
-0.0147047
2.12068
-0.0371306
2.4751
-0.0669141
2.88548
-0.108307
3.35876
-0.167521
3.90971
-0.279
4.65689
-0.530668
5.29439
-0.90784
6.67237
-0.988452
6.81553
-0.955016
5.68237
-0.701613
3.8593
-0.155918
1.1833
-0.079168
-0.255768
-0.0473238
-0.334676
-0.017371
-0.234286
-0.0785207
0.0177923
0.324887
0.0293505
0.941181
0.0284005
1.42638
0.0189519
1.79132
0.00328745
2.13635
-0.0170147
2.4954
-0.0451385
2.9136
-0.0833031
3.39692
-0.138701
3.96511
-0.245516
4.7637
-0.47743
5.5263
-0.781367
6.97631
-0.843152
6.87731
-0.761201
5.60042
-0.46047
3.55857
-0.015904
0.73873
0.00904179
-0.280714
0.00562427
-0.331258
0.00757737
-0.236239
-0.0709433
0.0246224
0.300264
0.043807
0.921996
0.0473898
1.4228
0.0403572
1.79835
0.0281307
2.14857
0.0101594
2.51337
-0.014473
2.93824
-0.04818
3.43063
-0.0976869
4.01461
-0.193733
4.85975
-0.388606
5.72117
-0.593693
7.1814
-0.643394
6.92701
-0.565976
5.52301
-0.225879
3.21847
0.100445
0.412405
0.0546406
-0.234909
0.0465526
-0.32317
0.0461706
-0.235857
-0.0247728
0.0325671
0.267697
0.0612719
0.893291
0.0718879
1.41218
0.0700361
1.80021
0.0616088
2.157
0.0469095
2.52807
0.0266863
2.95846
-0.000909058
3.45822
-0.0415182
4.05522
-0.111415
4.92965
-0.255389
5.86515
-0.380891
7.3069
-0.44895
6.99507
-0.47036
5.54442
-0.353403
3.10152
-0.329873
0.388875
-0.318123
-0.246659
-0.178861
-0.462432
-0.031457
-0.383262
-0.0562297
0.0419035
0.225794
0.0835084
0.851686
0.103303
1.39238
0.10705
1.79646
0.103347
2.1607
0.0936489
2.53777
0.0809306
2.97118
0.0623426
3.47681
0.0346505
4.08291
0.0040743
4.96022
-0.0557322
5.92495
-0.119011
7.37018
-0.194807
7.07087
-0.330702
5.68031
-0.483125
3.25394
-0.740203
0.645953
-0.739062
-0.247801
-0.53213
-0.669363
-0.248789
-0.666603
-0.305019
0.0513042
0.174489
0.109384
0.793606
0.142401
1.35937
0.154655
1.78421
0.157754
2.1576
0.153499
2.54203
0.148518
2.97616
0.142139
3.48319
0.137128
4.08792
0.13333
4.96402
0.187059
5.87122
0.240452
7.31678
0.226071
7.08525
0.141856
5.76453
-0.147232
3.54303
-0.615327
1.11405
-0.776287
-0.0868408
-0.647609
-0.798041
-0.357955
-0.956257
-0.662973
0.055463
0.119026
0.136616
0.712453
0.188007
1.30798
0.21175
1.76046
0.22309
2.14626
0.22695
2.53816
0.231815
2.97129
0.239516
3.47549
0.259525
4.06791
0.300271
4.92328
0.475802
5.69569
0.753463
7.03912
0.997212
6.8415
1.21505
5.54669
0.993998
3.76408
0.417262
1.69078
-0.0296648
0.360086
-0.251625
-0.576081
-0.226926
-0.980956
-0.8899
0.0501506
0.0688759
0.163202
0.599402
0.24262
1.22856
0.282248
1.72083
0.303725
2.12479
0.315971
2.52592
0.330816
2.95645
0.353589
3.45272
0.399922
4.02158
0.502689
4.82051
0.811803
5.38658
1.41185
6.43907
1.81944
6.43391
2.13796
5.22817
2.06803
3.83401
1.55588
2.20293
1.06994
0.846022
0.514497
-0.0206348
0.175518
-0.641977
-0.714382
0.0374765
0.0313994
0.188849
0.448029
0.299318
1.11809
0.362119
1.65803
0.396137
2.09077
0.421156
2.5009
0.444081
2.93352
0.480378
3.41642
0.551735
3.95023
0.699611
4.67263
1.09494
4.99125
1.83249
5.70152
2.24163
6.02477
2.47464
4.99516
2.45946
3.84919
2.02525
2.63714
1.4771
1.39417
0.959104
0.49736
0.421961
-0.104834
-0.292421
0.0295848
0.00181456
0.209371
0.268243
0.368215
0.959245
0.458068
1.56818
0.504806
2.04403
0.540404
2.4653
0.569102
2.90483
0.615216
3.37031
0.689988
3.87545
0.837711
4.52491
1.15507
4.67389
1.87291
4.98368
2.25098
5.6467
2.43404
4.8121
2.41706
3.86616
2.12733
2.92687
1.59065
1.93086
1.01232
1.07569
0.417063
0.490424
0.124643
0.0282297
-0.0264151
0.190593
0.10588
0.423827
0.726011
0.559671
1.43234
0.625999
1.9777
0.671197
2.4201
0.705415
2.87061
0.743073
3.33265
0.794007
3.82452
0.904669
4.41425
1.08526
4.4933
1.59487
4.47407
2.0064
5.23517
2.07053
4.74797
1.99547
3.94123
1.76213
3.16021
1.32428
2.36871
0.830296
1.56967
0.353362
0.967358
0.478005
0.0254787
-0.0518938
0.127195
0.00416384
0.383057
0.470149
0.551782
1.26361
0.626316
1.90317
0.653294
2.39313
0.664337
2.85957
0.656106
3.34088
0.647791
3.83284
0.651291
4.41075
0.68926
4.45533
0.877313
4.28601
1.10824
5.00425
1.10532
4.75089
1.02287
4.02367
0.886113
3.29697
0.673678
2.58114
0.408526
1.83482
0.161486
1.2144
0.639491
0.0190584
-0.0709522
0.0691901
-0.0459678
0.229524
0.309815
0.374622
1.11851
0.454102
1.82369
0.486736
2.36049
0.50534
2.84096
0.509133
3.33709
0.508734
3.83323
0.502439
4.41704
0.502049
4.45572
0.610267
4.1778
0.780909
4.83361
0.786548
4.74525
0.709364
4.10086
0.600117
3.40622
0.451486
2.72977
0.265582
2.02073
0.0941602
1.38582
0.733651
0.0223359
-0.0932882
0.0481648
-0.0717967
0.10453
0.253449
0.20393
1.01911
0.277098
1.75052
0.321075
2.31652
0.350823
2.81121
0.368936
3.31897
0.375415
3.82676
0.372632
4.41983
0.35981
4.46855
0.413631
4.12398
0.532013
4.71522
0.535964
4.7413
0.472566
4.16426
0.384706
3.49408
0.275948
2.83853
0.1475
2.14917
0.0361225
1.4972
0.769774
0.0148605
-0.108149
0.0127638
-0.0697
8.54214e-06
0.266205
0.0439515
0.975171
0.10429
1.69018
0.160145
2.26066
0.206372
2.76499
0.23788
3.28746
0.257719
3.80692
0.26671
4.41083
0.252571
4.48269
0.274597
4.10195
0.347474
4.64235
0.341476
4.7473
0.289003
4.21673
0.218144
3.56494
0.1398
2.91688
0.0571704
2.2318
-0.00809756
1.56247
0.761676
-0.00597144
-0.102177
-0.042796
-0.0328754
-0.0882487
0.311657
-0.090101
0.977024
-0.0421377
1.64222
0.0202783
2.19824
0.0782658
2.707
0.127036
3.23869
0.163218
3.77074
0.179579
4.39447
0.167112
4.49515