/*--------------------------------*- C++ -*----------------------------------*\
| =========                 |                                                 |
| \\      /  F ield         | OpenFOAM: The Open Source CFD Toolbox           |
|  \\    /   O peration     | Version:  v2012                                 |
|   \\  /    A nd           | Website:  www.openfoam.com                      |
|    \\/     M anipulation  |                                                 |
\*---------------------------------------------------------------------------*/
FoamFile
{
    version     2.0;
    format      ascii;
    class       volVectorField;
    location    "35";
    object      U;
}
// * * * * * * * * * * * * * * * * * * * * * * * * * * * * * * * * * * * * * //

dimensions      [0 1 -1 0 0 0 0];


internalField   nonuniform List<vector> 
2200
(
(0.878827 -0.0304145 0)
(1.00577 -0.0512833 0)
(1.00324 -0.0354103 0)
(1.00019 -0.0244558 0)
(0.999806 -0.0167004 0)
(1.00004 -0.0107956 0)
(1.00004 -0.00686534 0)
(1.00002 -0.00419912 0)
(0.999988 -0.00222559 0)
(1.00016 -0.000730171 0)
(1.00004 0.000940904 0)
(0.999924 0.00241984 0)
(0.999977 0.00440728 0)
(1.00011 0.00705477 0)
(1.00008 0.0108799 0)
(0.999774 0.0166861 0)
(1.00016 0.024438 0)
(1.00344 0.0351008 0)
(1.0059 0.0513451 0)
(0.878956 0.0303517 0)
(0.712019 -0.0327645 0)
(0.996633 -0.0630223 0)
(1.03334 -0.0561478 0)
(1.02492 -0.0463861 0)
(1.01586 -0.0360431 0)
(1.00964 -0.0263034 0)
(1.00597 -0.018151 0)
(1.00377 -0.0115119 0)
(1.00257 -0.00611344 0)
(1.00202 -0.00159345 0)
(1.00204 0.0025535 0)
(1.00259 0.00709338 0)
(1.00377 0.0123484 0)
(1.00575 0.0188513 0)
(1.00941 0.0269036 0)
(1.01575 0.0367176 0)
(1.02486 0.0470997 0)
(1.03312 0.0573549 0)
(0.996634 0.0631527 0)
(0.711823 0.032953 0)
(0.535459 -0.0239032 0)
(0.969862 -0.0569798 0)
(1.05643 -0.0547894 0)
(1.05229 -0.0489031 0)
(1.03629 -0.0405684 0)
(1.02437 -0.0323246 0)
(1.01578 -0.0241035 0)
(1.01033 -0.0162631 0)
(1.00718 -0.00906422 0)
(1.00569 -0.00245573 0)
(1.00564 0.00387041 0)
(1.00705 0.0103682 0)
(1.01008 0.0174058 0)
(1.01543 0.0250886 0)
(1.0241 0.033291 0)
(1.03603 0.0412774 0)
(1.052 0.0494007 0)
(1.05635 0.053874 0)
(0.96925 0.0575431 0)
(0.534459 0.0239293 0)
(0.392128 -0.0136623 0)
(0.911624 -0.0464033 0)
(1.0574 -0.0470107 0)
(1.06943 -0.044308 0)
(1.05492 -0.0382767 0)
(1.03935 -0.0316967 0)
(1.02743 -0.0248332 0)
(1.01898 -0.0175725 0)
(1.0136 -0.010088 0)
(1.0109 -0.00257002 0)
(1.01074 0.00484327 0)
(1.01325 0.0121752 0)
(1.01849 0.0193544 0)
(1.02697 0.0263822 0)
(1.03871 0.0328577 0)
(1.05424 0.0392452 0)
(1.06866 0.0453196 0)
(1.05589 0.0479774 0)
(0.910282 0.0468117 0)
(0.390346 0.0137357 0)
(0.307539 -0.00449796 0)
(0.846665 -0.0323782 0)
(1.04939 -0.0399153 0)
(1.07935 -0.0382441 0)
(1.068 -0.0336392 0)
(1.05159 -0.0281461 0)
(1.03835 -0.0228405 0)
(1.02817 -0.0168299 0)
(1.02117 -0.00998819 0)
(1.01744 -0.00242998 0)
(1.01725 0.0053724 0)
(1.02068 0.0127776 0)
(1.02747 0.0194551 0)
(1.03732 0.025154 0)
(1.05043 0.0301308 0)
(1.06675 0.0354128 0)
(1.07771 0.039706 0)
(1.04735 0.0413562 0)
(0.843513 0.0328399 0)
(0.304515 0.00467629 0)
(0.263997 8.37953e-05 0)
(0.788464 -0.0201392 0)
(1.03281 -0.0316271 0)
(1.08315 -0.0322764 0)
(1.07693 -0.028987 0)
(1.0605 -0.0240835 0)
(1.04707 -0.0196335 0)
(1.03624 -0.0145649 0)
(1.02837 -0.00861529 0)
(1.02385 -0.00165785 0)
(1.02356 0.00567118 0)
(1.02759 0.0123378 0)
(1.03503 0.0178513 0)
(1.04557 0.022433 0)
(1.05874 0.0265537 0)
(1.07508 0.03098 0)
(1.08098 0.0338144 0)
(1.03002 0.0329778 0)
(0.783834 0.0206217 0)
(0.259915 7.86528e-05 0)
(0.240018 0.00105391 0)
(0.737996 -0.0123262 0)
(1.0135 -0.0250312 0)
(1.08395 -0.0268513 0)
(1.08279 -0.0245403 0)
(1.06755 -0.0203806 0)
(1.05402 -0.0164699 0)
(1.04323 -0.012135 0)
(1.03517 -0.00699215 0)
(1.03034 -0.000883063 0)
(1.02991 0.00570168 0)
(1.03401 0.0115238 0)
(1.04142 0.0161961 0)
(1.05195 0.0201507 0)
(1.06521 0.0235201 0)
(1.08 0.0272081 0)
(1.08047 0.0290449 0)
(1.00844 0.0266505 0)
(0.730675 0.0129461 0)
(0.234555 -0.00088832 0)
(0.225604 0.000971947 0)
(0.694887 -0.0080165 0)
(0.992413 -0.0207286 0)
(1.08176 -0.0231858 0)
(1.08657 -0.0213987 0)
(1.07307 -0.0178955 0)
(1.05953 -0.0140857 0)
(1.04896 -0.00991272 0)
(1.04112 -0.00516581 0)
(1.03636 0.000299477 0)
(1.0358 0.00618666 0)
(1.03953 0.011251 0)
(1.04666 0.0153783 0)
(1.05644 0.0188474 0)
(1.0697 0.0219509 0)
(1.08274 0.0248221 0)
(1.07702 0.0258769 0)
(0.985336 0.0227426 0)
(0.684934 0.00885546 0)
(0.218687 -0.000776191 0)
(0.216045 0.000609727 0)
(0.659481 -0.00569488 0)
(0.971909 -0.0176889 0)
(1.07885 -0.0203426 0)
(1.08959 -0.018961 0)
(1.07761 -0.016007 0)
(1.06412 -0.0125261 0)
(1.05367 -0.00852633 0)
(1.04598 -0.00390921 0)
(1.04133 0.00118572 0)
(1.04054 0.00648115 0)
(1.04379 0.0110716 0)
(1.05048 0.014984 0)
(1.06034 0.0181548 0)
(1.07345 0.0211768 0)
(1.08447 0.0233422 0)
(1.07218 0.023972 0)
(0.961724 0.0201874 0)
(0.645684 0.0067185 0)
(0.207081 -0.000392122 0)
(0.208775 0.000279205 0)
(0.630828 -0.004196 0)
(0.952858 -0.0150268 0)
(1.07542 -0.0180758 0)
(1.09244 -0.0169065 0)
(1.08202 -0.0142349 0)
(1.06847 -0.0108509 0)
(1.05786 -0.00691827 0)
(1.05006 -0.00236033 0)
(1.0453 0.00256708 0)
(1.04427 0.00740678 0)
(1.04721 0.0117755 0)
(1.05361 0.0153064 0)
(1.06324 0.0183303 0)
(1.07602 0.0204377 0)
(1.0853 0.0222175 0)
(1.0659 0.0222177 0)
(0.938566 0.0179553 0)
(0.612741 0.00543274 0)
(0.197536 -2.00574e-05 0)
(0.203097 0.000101292 0)
(0.607916 -0.00296231 0)
(0.934841 -0.0122543 0)
(1.07205 -0.0152924 0)
(1.09518 -0.0144076 0)
(1.0861 -0.0119769 0)
(1.07261 -0.00883726 0)
(1.06198 -0.0051144 0)
(1.05402 -0.000819783 0)
(1.04889 0.00379677 0)
(1.04755 0.00816658 0)
(1.05033 0.012122 0)
(1.05662 0.0153569 0)
(1.06595 0.0177979 0)
(1.07869 0.0199886 0)
(1.08604 0.0211395 0)
(1.0599 0.0208583 0)
(0.916409 0.0159127 0)
(0.584652 0.00453489 0)
(0.188935 0.00022619 0)
(0.198916 5.47468e-05 0)
(0.590515 -0.00197214 0)
(0.919748 -0.00951817 0)
(1.0687 -0.0127362 0)
(1.09796 -0.0118472 0)
(1.09022 -0.00952795 0)
(1.0767 -0.00647103 0)
(1.06585 -0.00299436 0)
(1.05764 0.00103677 0)
(1.05224 0.00539572 0)
(1.0506 0.00956012 0)
(1.05299 0.0129779 0)
(1.05891 0.0156902 0)
(1.06816 0.0177796 0)
(1.08035 0.0192211 0)
(1.08603 0.020168 0)
(1.0519 0.0192582 0)
(0.894413 0.0139708 0)
(0.56068 0.00387547 0)
(0.181216 0.000366643 0)
(0.195974 1.55343e-05 0)
(0.577361 -0.00119527 0)
(0.906093 -0.00739161 0)
(1.06604 -0.0101748 0)
(1.10109 -0.00917474 0)
(1.09465 -0.00675728 0)
(1.08096 -0.0038064 0)
(1.06957 -0.000575126 0)
(1.06066 0.00307469 0)
(1.05447 0.00717746 0)
(1.05215 0.0112701 0)
(1.05444 0.0143279 0)
(1.06054 0.0162447 0)
(1.06989 0.0176009 0)
(1.08226 0.018763 0)
(1.08573 0.0194098 0)
(1.04467 0.0183209 0)
(0.874323 0.0126285 0)
(0.539894 0.00353354 0)
(0.173984 0.000474965 0)
(0.194188 1.07386e-05 0)
(0.567915 -0.000541106 0)
(0.8951 -0.00493562 0)
(1.06368 -0.00755067 0)
(1.10459 -0.00652917 0)
(1.09938 -0.003931 0)
(1.08548 -0.000653957 0)
(1.07364 0.00253847 0)
(1.06421 0.0060441 0)
(1.05764 0.00979506 0)
(1.05508 0.0132998 0)
(1.057 0.0155776 0)
(1.06272 0.0169733 0)
(1.07207 0.0178769 0)
(1.08372 0.0189425 0)
(1.08467 0.0191074 0)
(1.0351 0.0174032 0)
(0.853614 0.01148 0)
(0.521123 0.00334843 0)
(0.166962 0.00055898 0)
(0.194037 -0.000125428 0)
(0.562682 0.000479361 0)
(0.887631 -0.00243185 0)
(1.06226 -0.00437177 0)
(1.10784 -0.00328854 0)
(1.10424 -0.000799719 0)
(1.09042 0.00226927 0)
(1.07839 0.00556718 0)
(1.06872 0.00905405 0)
(1.06149 0.0125204 0)
(1.05784 0.0153715 0)
(1.05885 0.0172696 0)
(1.06422 0.0182977 0)
(1.07343 0.0188557 0)
(1.08366 0.0192682 0)
(1.08291 0.0187025 0)
(1.02684 0.0166358 0)
(0.83568 0.0104586 0)
(0.505106 0.00311143 0)
(0.160322 0.00057688 0)
(0.195194 7.15817e-05 0)
(0.562444 0.00133929 0)
(0.881433 5.69258e-05 0)
(1.0615 -0.00130487 0)
(1.11149 -2.72894e-05 0)
(1.10873 0.00241343 0)
(1.09484 0.00556588 0)
(1.08259 0.00896039 0)
(1.0727 0.0126203 0)
(1.06517 0.0161835 0)
(1.06111 0.0187357 0)
(1.06099 0.0201278 0)
(1.0649 0.0205425 0)
(1.07331 0.020647 0)
(1.0829 0.0199422 0)
(1.07913 0.018868 0)
(1.01467 0.0159362 0)
(0.815526 0.00947016 0)
(0.489524 0.0029636 0)
(0.15376 0.000579644 0)
(0.19864 0.000549049 0)
(0.564481 0.00196284 0)
(0.880596 0.00285061 0)
(1.06204 0.00236484 0)
(1.11445 0.00400749 0)
(1.11277 0.00639964 0)
(1.09886 0.00935108 0)
(1.086 0.0128912 0)
(1.07525 0.0166896 0)
(1.06642 0.0202646 0)
(1.0608 0.0225445 0)
(1.05994 0.0235543 0)
(1.06417 0.0233538 0)
(1.07235 0.0223343 0)
(1.0811 0.0209385 0)
(1.07484 0.0192796 0)
(1.00468 0.0157539 0)
(0.799469 0.0090836 0)
(0.476453 0.00302456 0)
(0.147683 0.000590135 0)
(0.203771 0.000686772 0)
(0.570074 0.00309099 0)
(0.883256 0.00546571 0)
(1.06406 0.00612392 0)
(1.11864 0.00843523 0)
(1.11739 0.0111365 0)
(1.10306 0.0145175 0)
(1.08952 0.0183043 0)
(1.0777 0.0220062 0)
(1.06769 0.0254244 0)
(1.06145 0.027282 0)
(1.05969 0.0275352 0)
(1.06225 0.026391 0)
(1.06961 0.0249337 0)
(1.07734 0.0228672 0)
(1.06767 0.0203721 0)
(0.990109 0.0158948 0)
(0.779355 0.00901619 0)
(0.461421 0.00327161 0)
(0.140825 0.000628624 0)
(0.212207 0.000854952 0)
(0.582852 0.00446153 0)
(0.890967 0.00851448 0)
(1.06879 0.0108752 0)
(1.12307 0.0135116 0)
(1.12268 0.0166787 0)
(1.10841 0.0206601 0)
(1.09441 0.0247104 0)
(1.08159 0.0287959 0)
(1.06985 0.0320148 0)
(1.06136 0.0331911 0)
(1.05809 0.0323044 0)
(1.06043 0.0303603 0)
(1.06712 0.0277348 0)
(1.07308 0.0249597 0)
(1.06102 0.0214042 0)
(0.978608 0.0165591 0)
(0.764499 0.00961941 0)
(0.448645 0.00368248 0)
(0.13416 0.000652778 0)
(0.221646 0.00110173 0)
(0.597276 0.00534068 0)
(0.902158 0.0110978 0)
(1.07633 0.0149172 0)
(1.12988 0.0186282 0)
(1.12965 0.0228848 0)
(1.1148 0.0274048 0)
(1.09998 0.0322874 0)
(1.08605 0.0366437 0)
(1.07278 0.0396503 0)
(1.06261 0.0402728 0)
(1.05753 0.0387634 0)
(1.0573 0.0357046 0)
(1.06247 0.0321645 0)
(1.06705 0.0287079 0)
(1.05117 0.024276 0)
(0.961446 0.0184046 0)
(0.742559 0.0108941 0)
(0.430697 0.0043307 0)
(0.12558 0.000723609 0)
(0.235262 0.00149742 0)
(0.619072 0.00710986 0)
(0.92001 0.0148157 0)
(1.08735 0.0204488 0)
(1.13808 0.0251667 0)
(1.13749 0.0300455 0)
(1.12162 0.0358101 0)
(1.1053 0.0411992 0)
(1.08936 0.0462186 0)
(1.07376 0.0495938 0)
(1.06114 0.0498962 0)
(1.05436 0.0467808 0)
(1.05388 0.0425686 0)
(1.05823 0.0378292 0)
(1.06057 0.0331072 0)
(1.04154 0.0277295 0)
(0.947155 0.0211295 0)
(0.725455 0.0129984 0)
(0.414132 0.00519042 0)
(0.116799 0.000814151 0)
(0.251499 0.00204345 0)
(0.644179 0.00873291 0)
(0.94158 0.0185553 0)
(1.10165 0.0261231 0)
(1.14865 0.0322867 0)
(1.14707 0.039486 0)
(1.12937 0.0460012 0)
(1.111 0.0525835 0)
(1.09261 0.0580159 0)
(1.07436 0.0609537 0)
(1.0588 0.059997 0)
(1.04972 0.0562309 0)
(1.04671 0.0509773 0)
(1.04974 0.0450569 0)
(1.05128 0.0400005 0)
(1.02831 0.0333534 0)
(0.925481 0.0252025 0)
(0.696996 0.0154997 0)
(0.388782 0.00612776 0)
(0.104823 0.000938845 0)
(0.274166 0.00284694 0)
(0.678556 0.012458 0)
(0.969962 0.0247729 0)
(1.12041 0.0346172 0)
(1.16253 0.0427144 0)
(1.15868 0.0507161 0)
(1.13867 0.0590708 0)
(1.11758 0.066584 0)
(1.09602 0.0724966 0)
(1.07442 0.0755215 0)
(1.05615 0.0740558 0)
(1.04524 0.0687534 0)
(1.04164 0.0617119 0)
(1.04336 0.0540811 0)
(1.04148 0.0473097 0)
(1.01386 0.0389488 0)
(0.904787 0.0295294 0)
(0.672815 0.0182548 0)
(0.365258 0.00715801 0)
(0.0928668 0.000994189 0)
(0.305239 0.00373329 0)
(0.723503 0.0152786 0)
(1.00713 0.0320803 0)
(1.14465 0.0450036 0)
(1.17973 0.0546512 0)
(1.17305 0.0661213 0)
(1.1495 0.0756529 0)
(1.12518 0.0842688 0)
(1.10025 0.0903624 0)
(1.07497 0.0925086 0)
(1.05247 0.0890213 0)
(1.03752 0.0817995 0)
(1.03076 0.0737878 0)
(1.03075 0.0651202 0)
(1.02827 0.0570547 0)
(0.994906 0.0471447 0)
(0.875125 0.0350357 0)
(0.633726 0.0214 0)
(0.329719 0.00801116 0)
(0.0770133 0.00103067 0)
(0.341143 0.00725244 0)
(0.779728 0.0245142 0)
(1.05199 0.0445294 0)
(1.17403 0.0607855 0)
(1.20117 0.0737897 0)
(1.18918 0.0865331 0)
(1.16141 0.0974011 0)
(1.1329 0.106342 0)
(1.10351 0.11204 0)
(1.07383 0.11324 0)
(1.04815 0.108606 0)
(1.03199 0.100376 0)
(1.02445 0.0900489 0)
(1.02222 0.0789744 0)
(1.01329 0.0680973 0)
(0.971764 0.0553611 0)
(0.843302 0.0409969 0)
(0.59838 0.0248336 0)
(0.297852 0.00927955 0)
(0.0624205 0.000960593 0)
(0.422233 0.0109853 0)
(0.86407 0.0353086 0)
(1.11222 0.0648743 0)
(1.21027 0.0857784 0)
(1.22553 0.0992886 9.76654e-34)
(1.20698 0.115225 -4.2833e-34)
(1.17344 0.126082 0)
(1.14009 0.13436 0)
(1.10605 0.138574 0)
(1.07186 0.13744 0)
(1.04168 0.129638 0)
(1.02033 0.117653 0)
(1.00822 0.105242 0)
(1.0029 0.0929434 0)
(0.993145 0.080583 0)
(0.944105 0.0658531 0)
(0.802234 0.0478422 0)
(0.544699 0.028789 0)
(0.248668 0.00938863 0)
(0.0423811 0.000738595 0)
(0.491909 0.0261414 7.99633e-20)
(0.961612 0.0590411 -6.01189e-20)
(1.1765 0.0980057 0)
(1.24703 0.12183 4.39371e-20)
(1.25166 0.138047 -3.56077e-20)
(1.22376 0.154089 4.51917e-34)
(1.1844 0.163298 0)
(1.14581 0.169702 2.27077e-20)
(1.10633 0.171811 -7.36875e-20)
(1.06656 0.168126 1.485e-20)
(1.03204 0.158001 0)
(1.00951 0.144676 -3.59985e-20)
(0.997276 0.130649 -4.265e-20)
(0.988909 0.115195 7.44396e-20)
(0.965679 0.0982522 -5.86019e-20)
(0.899901 0.0786269 0)
(0.741932 0.0567936 -2.10258e-20)
(0.475226 0.0321611 0)
(0.19481 0.0110769 -1.15822e-19)
(0.0244981 0.000993045 1.36774e-19)
(0.525421 0.0539229 -1.01047e-20)
(1.02004 0.102512 1.98695e-19)
(1.22213 0.148044 -1.67372e-20)
(1.27838 0.169246 -1.20871e-19)
(1.27426 0.186332 -7.56347e-20)
(1.23836 0.20035 1.22466e-19)
(1.19362 0.207367 0)
(1.14966 0.211666 0)
(1.10467 0.211404 1.17728e-19)
(1.05973 0.2049 0)
(1.02006 0.191322 1.31736e-19)
(0.989997 0.174439 3.86235e-20)
(0.967342 0.15603 3.56006e-22)
(0.948024 0.138142 -8.11783e-20)
(0.925057 0.121184 0)
(0.857352 0.101494 0)
(0.694203 0.0736341 -3.43675e-19)
(0.433736 0.0441085 8.60557e-19)
(0.178555 0.0151365 -5.10486e-19)
(0.0190114 0.0024306 -6.02781e-19)
(0.531632 0.0766586 -1.4558e-19)
(1.05469 0.159009 5.16105e-20)
(1.2564 0.20926 2.42779e-20)
(1.30326 0.228587 2.13217e-19)
(1.29165 0.243356 1.41337e-20)
(1.24956 0.252921 -3.22451e-19)
(1.19999 0.256306 1.07239e-19)
(1.15069 0.25764 0)
(1.10014 0.25435 -2.50088e-19)
(1.04896 0.24461 2.14465e-19)
(1.00327 0.22863 -3.54935e-19)
(0.968992 0.208858 1.65138e-19)
(0.94618 0.1903 -1.04274e-19)
(0.929471 0.173349 2.36138e-19)
(0.895398 0.153263 0)
(0.820309 0.128263 -8.53721e-20)
(0.663216 0.0960438 0)
(0.422802 0.0563146 4.73192e-19)
(0.179812 0.0243309 -1.12384e-18)
(0.0244518 0.00284206 7.03886e-19)
(0.522913 0.108329 5.01602e-19)
(1.06931 0.215401 -2.11249e-19)
(1.27542 0.273938 -4.08468e-20)
(1.31937 0.292379 0)
(1.30274 0.304776 -1.53165e-19)
(1.25621 0.309572 1.87063e-19)
(1.20247 0.308662 -1.14737e-19)
(1.1484 0.306237 0)
(1.09301 0.298913 1.7796e-19)
(1.03747 0.285107 -1.51311e-19)
(0.987553 0.264621 3.0703e-19)
(0.948138 0.242253 0)
(0.918013 0.222279 -2.21939e-19)
(0.888971 0.200798 1.25805e-19)
(0.859035 0.180332 3.127e-19)
(0.792225 0.157857 -2.75042e-19)
(0.648336 0.122394 4.39273e-19)
(0.424123 0.0771458 -9.72149e-19)
(0.195354 0.0356982 6.1398e-19)
(0.0350315 0.00640852 -7.68348e-19)
(0.510317 0.13262 -2.36634e-19)
(1.07627 0.270412 1.72412e-19)
(1.28552 0.340554 -1.33034e-19)
(1.3275 0.357885 2.35463e-19)
(1.3073 0.367728 -2.04646e-19)
(1.25795 0.367878 6.22765e-20)
(1.20122 0.36285 3.65104e-21)
(1.14332 0.356453 -2.1337e-19)
(1.08391 0.345232 -1.87768e-19)
(1.02303 0.327381 -3.24878e-19)
(0.966549 0.30388 -6.5941e-19)
(0.923783 0.279369 -1.99322e-19)
(0.893071 0.256272 2.45515e-21)
(0.870268 0.236541 -4.2502e-19)
(0.833025 0.21635 -6.33566e-21)
(0.763722 0.187918 3.98496e-19)
(0.628058 0.148713 -1.20033e-19)
(0.422556 0.0977772 -7.00571e-20)
(0.208057 0.0488373 0)
(0.0443556 0.0106357 1.62489e-18)
(0.491918 0.153117 0)
(1.06807 0.319441 -3.86696e-20)
(1.28651 0.403498 0)
(1.32904 0.421616 -1.25333e-20)
(1.30647 0.430041 2.08771e-19)
(1.25522 0.42616 -1.39837e-19)
(1.19613 0.417217 1.27442e-19)
(1.13523 0.40686 3.47686e-19)
(1.07209 0.391108 -1.03322e-19)
(1.00735 0.368939 1.64282e-19)
(0.948818 0.341464 3.5405e-19)
(0.902849 0.313506 4.32565e-19)
(0.866834 0.289709 -2.57518e-19)
(0.832691 0.266062 4.58429e-19)
(0.802941 0.245045 -3.61636e-19)
(0.74435 0.220009 0)
(0.621522 0.177193 -9.08122e-19)
(0.42875 0.121273 1.22271e-18)
(0.220783 0.0634905 9.11549e-20)
(0.0522489 0.0153429 -1.70766e-18)
(0.478003 0.17369 -5.16758e-21)
(1.06012 0.368224 5.75325e-20)
(1.28319 0.464495 3.78352e-19)
(1.32579 0.483127 -2.86598e-19)
(1.30121 0.490264 1.59642e-19)
(1.24865 0.482939 -1.41644e-19)
(1.18798 0.47075 2.5997e-19)
(1.12474 0.456776 -1.107e-19)
(1.0588 0.437378 -4.23538e-19)
(0.990831 0.411893 1.79169e-22)
(0.927971 0.379595 -3.82697e-19)
(0.878364 0.349006 -4.63715e-19)
(0.842902 0.322013 2.81935e-19)
(0.818381 0.301154 -1.6439e-19)
(0.781766 0.278811 3.90813e-19)
(0.720013 0.247302 0)
(0.604425 0.203606 -5.60506e-19)
(0.427236 0.142707 8.27593e-19)
(0.228405 0.0772361 1.56979e-18)
(0.0575415 0.0197475 -1.84723e-18)
(0.46328 0.191098 3.30465e-19)
(1.04645 0.412313 -1.77195e-19)
(1.27571 0.521826 -2.40932e-19)
(1.31907 0.541904 3.03328e-19)
(1.29286 0.548291 1.15231e-20)
(1.23927 0.537885 -2.8858e-19)
(1.17728 0.522641 -1.45958e-19)
(1.11221 0.505247 -1.32742e-19)
(1.04399 0.482017 -2.34739e-19)
(0.972617 0.451188 3.75826e-19)
(0.907227 0.415651 3.9239e-19)
(0.857443 0.382784 7.37615e-19)
(0.820058 0.354936 0)
(0.784063 0.328065 5.93174e-21)
(0.754534 0.303775 -1.0656e-18)
(0.703153 0.278775 2.48045e-19)
(0.595959 0.230471 1.20566e-18)
(0.425819 0.164922 -3.55375e-19)
(0.231019 0.0899722 7.42193e-19)
(0.060096 0.0233366 -6.20458e-20)
(0.454372 0.209981 5.94736e-21)
(1.03539 0.455845 -1.2721e-19)
(1.26628 0.576721 -1.59064e-19)
(1.30974 0.597889 4.40928e-19)
(1.28203 0.603389 -4.3446e-19)
(1.22768 0.590304 2.96798e-19)
(1.16461 0.572588 1.5281e-19)
(1.09797 0.552287 4.06217e-19)
(1.02728 0.525897 4.80872e-19)
(0.953382 0.493104 -4.23788e-19)
(0.886243 0.455467 0)
(0.83348 0.41644 -2.74483e-19)
(0.794049 0.385786 3.15132e-19)
(0.769946 0.360349 3.89935e-19)
(0.734408 0.336584 -2.25709e-19)
(0.67806 0.302061 -5.47199e-19)
(0.575358 0.254702 -1.632e-19)
(0.415466 0.18229 -1.36872e-21)
(0.225518 0.100099 0)
(0.0593189 0.0252838 0)
(0.446071 0.225723 9.65688e-20)
(1.02267 0.495806 0)
(1.25507 0.628061 -1.54372e-19)
(1.29855 0.65103 5.0006e-20)
(1.2696 0.655932 4.74084e-19)
(1.21465 0.640382 -1.24579e-19)
(1.15089 0.620321 1.57724e-19)
(1.08324 0.597312 -2.79814e-19)
(1.01163 0.567838 3.69839e-19)
(0.937062 0.530681 -1.3167e-19)
(0.866669 0.485559 2.23877e-19)
(0.812275 0.446678 8.71775e-19)
(0.773711 0.413602 1.37311e-20)
(0.73515 0.385042 -4.08537e-19)
(0.707872 0.357751 7.47686e-19)
(0.660872 0.329705 4.40508e-21)
(0.564063 0.275343 1.74602e-19)
(0.406379 0.198839 -8.32674e-19)
(0.217912 0.106695 8.51166e-19)
(0.0562946 0.0268401 -1.00972e-18)
(0.44002 0.244727 3.74236e-23)
(1.01153 0.534637 0)
(1.24306 0.676826 0)
(1.28605 0.701298 -6.82779e-20)
(1.25603 0.705335 -1.58404e-19)
(1.20065 0.68758 1.53745e-19)
(1.13625 0.665613 -3.11723e-19)
(1.06753 0.640233 0)
(0.993591 0.608154 -5.39952e-19)
(0.913878 0.568513 6.10975e-19)
(0.840571 0.523521 6.26674e-19)
(0.786029 0.47966 -3.18107e-19)
(0.746256 0.442213 -3.79742e-19)
(0.722434 0.413603 8.87766e-19)
(0.68788 0.386349 -2.65643e-19)
(0.635963 0.346704 -3.16404e-19)
(0.541571 0.293797 -1.89215e-19)
(0.39139 0.210072 -8.96353e-19)
(0.207936 0.110984 1.29636e-19)
(0.0520331 0.0273202 1.08806e-18)
(0.436488 0.263182 2.71705e-20)
(1.00065 0.570922 5.89547e-20)
(1.23028 0.722485 2.33909e-20)
(1.27278 0.748862 -8.63661e-23)
(1.24191 0.752241 -1.09661e-19)
(1.18615 0.732413 2.92382e-19)
(1.1212 0.708614 0)
(1.05145 0.681212 1.65262e-19)
(0.976286 0.647 -1.30311e-19)
(0.897523 0.604442 1.02327e-18)
(0.825471 0.554305 -1.41531e-19)
(0.766699 0.507305 1.60013e-19)
(0.723563 0.469456 0)
(0.687109 0.43401 -4.79289e-19)
(0.660378 0.402123 5.75997e-19)
(0.617439 0.37055 0)
(0.526666 0.307803 -4.08172e-19)
(0.375214 0.220099 1.19973e-18)
(0.196074 0.113148 1.41153e-19)
(0.0469183 0.0269214 -1.33781e-18)
(0.434567 0.28001 4.16944e-20)
(0.990959 0.605728 -5.27648e-20)
(1.21742 0.765469 0)
(1.25915 0.793417 -1.36183e-19)
(1.22746 0.796101 0)
(1.17132 0.774527 -3.37634e-19)
(1.10582 0.749224 0)
(1.03539 0.719988 0)
(0.959067 0.683805 -1.60959e-19)
(0.876716 0.639314 -9.68801e-19)
(0.796697 0.58775 -1.15476e-18)
(0.736447 0.536433 1.83304e-19)
(0.697466 0.491564 6.54386e-19)
(0.671973 0.458084 5.24583e-19)
(0.640424 0.426663 -1.84831e-18)
(0.591139 0.380777 -7.40128e-19)
(0.501347 0.320953 4.33223e-19)
(0.35615 0.224689 0)
(0.183268 0.113457 1.21479e-18)
(0.0416511 0.025571 -1.44003e-18)
(0.433264 0.295718 -3.07914e-20)
(0.981433 0.638329 4.49017e-20)
(1.20454 0.805704 0)
(1.24535 0.835499 -1.05884e-20)
(1.21295 0.837664 6.46659e-20)
(1.15655 0.814411 0)
(1.09073 0.787633 9.51009e-20)
(1.01959 0.756802 1.07369e-19)
(0.941906 0.719049 -3.14631e-19)
(0.857911 0.672639 1.33376e-19)
(0.779254 0.616412 0)
(0.719226 0.562333 7.63625e-19)
(0.6726 0.517817 4.55872e-21)
(0.636039 0.47554 2.82557e-19)
(0.611174 0.436664 3.34478e-19)
(0.570929 0.400196 0)
(0.484154 0.327862 -7.09062e-19)
(0.337631 0.228657 1.39204e-18)
(0.16993 0.111975 -1.47368e-18)
(0.0365692 0.0238255 3.09949e-18)
(0.432239 0.310793 0)
(0.972754 0.669707 0)
(1.19202 0.843416 3.8856e-20)
(1.23173 0.874698 0)
(1.19866 0.876356 0)
(1.14199 0.851793 -3.37563e-19)
(1.07578 0.823837 9.90391e-20)
(1.00393 0.791602 1.74109e-20)
(0.924825 0.752303 -7.57369e-20)
(0.838346 0.704311 0)
(0.754923 0.648113 -1.72843e-19)
(0.687844 0.591296 -6.20739e-19)
(0.64437 0.538598 -7.39891e-19)
(0.619418 0.496215 -2.94949e-19)
(0.58939 0.458215 3.62236e-19)
(0.543376 0.402923 -8.53798e-19)
(0.456941 0.335581 1.52487e-18)
(0.316299 0.227333 4.15395e-21)
(0.156632 0.108952 -1.41427e-18)
(0.032005 0.0218382 -2.0899e-19)
(0.431264 0.325524 0)
(0.964401 0.699375 2.62048e-20)
(1.17979 0.87884 -3.11285e-20)
(1.2183 0.911758 0)
(1.18461 0.913011 0)
(1.12774 0.887126 7.04888e-19)
(1.06128 0.858006 0)
(0.988768 0.824511 0)
(0.908577 0.784285 -6.97247e-19)
(0.820825 0.735313 1.74596e-19)
(0.73556 0.675238 -1.55897e-18)
(0.668529 0.614721 0)
(0.620041 0.562719 -7.98715e-19)
(0.580413 0.511807 1.10489e-20)
(0.556426 0.46131 -1.16207e-18)
(0.520444 0.416718 4.59304e-19)
(0.439238 0.333427 2.52701e-21)
(0.299771 0.225417 -1.6074e-18)
(0.145315 0.104933 7.61977e-19)
(0.0279788 0.0199556 2.23747e-19)
(0.430373 0.339868 0)
(0.956772 0.727821 -8.16165e-21)
(1.16801 0.912014 -3.40137e-20)
(1.20526 0.946119 -1.78475e-19)
(1.17101 0.946957 -8.83201e-20)
(1.11399 0.920148 8.48474e-20)
(1.04728 0.890213 -8.24539e-20)
(0.974256 0.855698 7.58036e-19)
(0.89292 0.814398 7.45857e-19)
(0.802845 0.764254 1.36907e-18)
(0.714409 0.704958 1.29577e-18)
(0.641462 0.644676 2.23294e-19)
(0.58913 0.583345 1.14749e-18)
(0.561022 0.529582 6.99773e-19)
(0.532018 0.480003 8.3348e-19)
(0.49069 0.409545 -5.0185e-19)
(0.410859 0.332093 -5.87871e-19)
(0.280169 0.214234 6.88257e-19)
(0.135413 0.0998253 -4.07712e-19)
(0.0278824 0.023004 7.23595e-19)
(0.429514 0.35375 3.66107e-20)
(0.949423 0.754594 7.25113e-21)
(1.15655 0.94325 -1.3816e-20)
(1.19256 0.978664 1.63036e-20)
(1.15782 0.979121 2.51384e-19)
(1.10068 0.951296 -1.99637e-19)
(1.03387 0.920488 8.44214e-20)
(0.960402 0.885111 -2.09685e-20)
(0.878176 0.843223 -8.74944e-19)
(0.786452 0.792821 -1.47979e-18)
(0.694326 0.731805 9.19336e-20)
(0.618682 0.665923 0)
(0.564485 0.606871 0)
(0.518321 0.545835 -3.65994e-19)
(0.49231 0.477151 -1.35693e-18)
(0.461302 0.415601 1.08029e-18)
(0.395381 0.309716 6.42295e-19)
(0.282547 0.195659 0)
(0.145336 0.0770707 1.30046e-18)
(0.0217032 -0.000705919 -7.74311e-19)
(0.428728 0.366984 -1.81313e-20)
(0.942584 0.780043 1.89458e-20)
(1.14554 0.972415 1.60586e-20)
(1.18033 1.00868 6.83961e-20)
(1.14514 1.00873 7.37106e-20)
(1.08798 0.980257 -5.752e-20)
(1.0211 0.948983 0)
(0.947292 0.91289 -9.60214e-19)
(0.864083 0.870387 1.07252e-19)
(0.770795 0.819426 0)
(0.677812 0.759269 0)
(0.597525 0.696535 1.38641e-19)
(0.532323 0.62977 1.81095e-19)
(0.495719 0.562399 -3.9386e-19)
(0.461873 0.496758 9.73272e-19)
(0.42193 0.396915 -1.17335e-18)
(0.356687 0.292404 -1.3733e-18)
(0.275005 0.17129 1.21357e-18)
(0.188634 0.107846 -4.64452e-19)
(0.11478 0.0839751 2.71472e-19)
(0.427811 0.379422 4.07372e-20)
(0.935875 0.803843 0)
(1.13486 0.999865 0)
(1.16851 1.03717 3.16513e-20)
(1.13295 1.03683 -2.56236e-20)
(1.07577 1.00753 -2.0973e-20)
(1.00892 0.975613 3.49831e-19)
(0.934909 0.93907 1.02046e-18)
(0.851132 0.896191 1.60872e-18)
(0.756348 0.845361 -1.09307e-19)
(0.657383 0.784739 2.2031e-19)
(0.570711 0.717767 -1.25505e-18)
(0.508544 0.653807 -1.2213e-18)
(0.448685 0.583889 -2.10654e-19)
(0.408629 0.491195 0)
(0.37544 0.404487 -1.02458e-20)
(0.323907 0.231552 7.48946e-19)
(0.281821 0.0710259 -1.27539e-18)
(0.241713 -0.0645774 9.74609e-19)
(0.080577 -0.0951089 8.18058e-19)
(0.426859 0.391349 -9.63549e-20)
(0.929487 0.826414 -5.07279e-20)
(1.12454 1.02553 6.78043e-21)
(1.15707 1.06351 -5.20585e-21)
(1.12114 1.06283 0)
(1.064 1.03313 -3.74646e-19)
(0.997192 1.00109 -4.7893e-19)
(0.922955 0.964194 2.05921e-20)
(0.838353 0.921296 -8.49777e-19)
(0.741996 0.870512 -1.07579e-19)
(0.643804 0.810709 9.99208e-20)
(0.557526 0.7496 1.10075e-18)
(0.475714 0.681562 1.19241e-18)
(0.423103 0.603052 2.0449e-19)
(0.37286 0.523198 1.03001e-18)
(0.304653 0.382386 0)
(0.192191 0.219727 0)
(0.0211984 0.236628 8.728e-19)
(-0.0745673 0.628805 -3.21522e-20)
(0.00395334 1.52391 -1.04826e-18)
(0.425712 0.402626 5.65375e-20)
(0.923229 0.847673 1.05619e-19)
(1.11449 1.04996 -7.10702e-20)
(1.14595 1.08899 -4.53449e-20)
(1.10967 1.08813 4.33737e-20)
(1.05251 1.05794 -3.81458e-19)
(0.985692 1.02561 0)
(0.911299 0.988825 -8.73247e-19)
(0.82628 0.946133 0)
(0.728499 0.895852 1.57826e-18)
(0.623635 0.837228 -1.16018e-19)
(0.524706 0.773974 1.30087e-19)
(0.452172 0.710636 1.35983e-18)
(0.369735 0.641937 -4.37155e-19)
(0.281571 0.529693 -5.23218e-19)
(0.207085 0.441994 0)
(0.0987416 0.542095 0)
(0.0303923 1.29467 0)
(0.0747769 2.44771 -4.98026e-19)
(0.10376 2.90318 -3.03752e-19)
(0.424415 0.413349 0)
(0.917256 0.867744 0)
(1.10483 1.0728 3.16567e-20)
(1.13524 1.1125 4.70335e-20)
(1.0986 1.11154 -1.14671e-19)
(1.04147 1.0813 3.62867e-19)
(0.97471 1.0493 5.92519e-20)
(0.900106 1.01261 -4.6133e-20)
(0.814304 0.970633 1.16924e-19)
(0.714959 0.921692 -1.81245e-18)
(0.610832 0.865153 2.16006e-19)
(0.518396 0.808525 1.09949e-18)
(0.419873 0.748168 -1.35858e-18)
(0.343695 0.665376 -1.4579e-18)
(0.271036 0.593711 4.88917e-19)
(0.200955 0.718358 0)
(0.132376 1.52553 6.82127e-19)
(0.131507 2.68257 7.65241e-19)
(0.139072 3.08419 -8.56181e-19)
(0.130044 3.22039 9.30407e-19)
(0.422935 0.423587 0)
(0.911403 0.886524 1.33758e-19)
(1.09544 1.09448 -5.72294e-21)
(1.12491 1.1353 -5.84799e-21)
(1.08796 1.13438 1.20366e-19)
(1.03082 1.10394 0)
(0.964029 1.07194 0)
(0.889317 1.03578 0)
(0.803145 0.994442 7.17902e-19)
(0.702987 0.946516 8.91626e-20)
(0.594317 0.891992 0)
(0.484783 0.835734 -1.09797e-18)
(0.403131 0.780159 0)
(0.294201 0.71936 1.0456e-18)
(0.212144 0.791886 -7.03184e-19)
(0.163766 1.45419 -5.63339e-19)
(0.166662 2.6715 -1.32891e-18)
(0.187137 3.12634 -7.10622e-19)
(0.177672 3.26924 -1.00815e-18)
(0.162983 3.30983 7.90594e-19)
(0.42142 0.433015 -5.21911e-20)
(0.905832 0.904197 1.54071e-20)
(1.08647 1.11473 -9.16349e-21)
(1.11504 1.15623 1.82306e-20)
(1.07774 1.15541 0)
(1.02064 1.12522 0)
(0.953919 1.09385 0)
(0.879035 1.05816 6.03387e-20)
(0.792404 1.01812 -9.02209e-19)
(0.691109 0.972628 0)
(0.581405 0.921713 0)
(0.484757 0.872623 0)
(0.371474 0.822558 0)
(0.308244 0.808485 7.72914e-19)
(0.277258 1.17962 1.88249e-18)
(0.261635 2.36139 5.56546e-19)
(0.272511 3.08246 1.152e-18)
(0.266226 3.28706 -9.07352e-19)
(0.216488 3.35382 3.39262e-19)
(0.183084 3.36638 0)
(0.419765 0.442065 5.64761e-20)
(0.900153 0.921109 -3.26291e-19)
(1.07753 1.13449 -7.29212e-20)
(1.1053 1.17723 -9.68728e-21)
(1.06773 1.17663 -3.34377e-20)
(1.01067 1.14644 3.64336e-19)
(0.943911 1.11526 -3.74629e-20)
(0.869048 1.08036 -7.9971e-19)
(0.782211 1.04132 0)
(0.680384 0.997199 -1.05012e-19)
(0.569393 0.948201 9.5528e-20)
(0.453946 0.90038 0)
(0.369929 0.863238 0)
(0.321548 0.988857 -9.66896e-19)
(0.284824 1.84818 1.36501e-19)
(0.279958 2.93754 -4.38552e-19)
(0.299739 3.29189 9.37114e-19)
(0.273071 3.39185 7.19921e-19)
(0.20604 3.41681 -1.05621e-18)
(0.18064 3.42578 5.27612e-19)
(0.417772 0.451265 1.19105e-19)
(0.894185 0.938482 3.36122e-19)
(1.06823 1.15456 8.00706e-20)
(1.09522 1.1979 0)
(1.05738 1.19745 0)
(1.00044 1.16756 -2.77074e-19)
(0.933903 1.13713 3.31715e-19)
(0.85907 1.10282 7.19444e-19)
(0.772283 1.06532 4.14507e-20)
(0.670192 1.02433 1.42981e-18)
(0.557744 0.980909 -1.55737e-18)
(0.454319 0.938374 0)
(0.376486 0.945578 0)
(0.342811 1.34879 -6.78695e-19)
(0.34488 2.4691 -8.05691e-19)
(0.387541 3.19923 0)
(0.412829 3.37621 -1.04926e-18)
(0.342804 3.44009 -1.29687e-20)
(0.270948 3.48433 6.68183e-19)
(0.247462 3.50994 -2.67647e-19)
(0.415326 0.460858 -2.32102e-19)
(0.887353 0.956541 -1.65645e-19)
(1.05795 1.17579 0)
(1.08429 1.22037 0)
(1.04632 1.22009 0)
(0.989583 1.19002 0)
(0.923207 1.15958 -3.65535e-19)
(0.84875 1.12595 7.14182e-19)
(0.762001 1.08938 0)
(0.659832 1.04962 -1.30544e-18)
(0.549147 1.00705 2.81343e-18)
(0.437808 0.974142 1.11826e-19)
(0.382678 1.05861 1.41937e-19)
(0.391405 1.73687 1.12215e-18)
(0.412657 2.89127 -6.27556e-19)
(0.449707 3.32536 0)
(0.431548 3.45236 3.10944e-19)
(0.344676 3.54011 9.4785e-20)
(0.265312 3.60602 8.50595e-20)
(0.189878 3.58563 1.03166e-19)
(0.412369 0.470776 1.13006e-19)
(0.8799 0.975768 -1.86597e-19)
(1.04694 1.19796 0)
(1.0726 1.2428 -6.01797e-21)
(1.03447 1.24246 -1.44086e-20)
(0.978039 1.21251 0)
(0.91221 1.18271 0)
(0.838123 1.14955 -1.27389e-18)
(0.752126 1.11438 -9.25363e-20)
(0.65096 1.07797 1.33231e-18)
(0.536401 1.04255 -1.3473e-18)
(0.451175 1.02755 7.5988e-19)
(0.416284 1.24274 0)
(0.43702 2.17456 -6.02718e-19)
(0.477905 3.14473 3.83321e-19)
(0.538523 3.43131 2.80277e-19)
(0.532228 3.52981 0)
(0.467051 3.61588 1.58591e-20)