/*--------------------------------*- C++ -*----------------------------------*\
| =========                 |                                                 |
| \\      /  F ield         | OpenFOAM: The Open Source CFD Toolbox           |
|  \\    /   O peration     | Version:  v2012                                 |
|   \\  /    A nd           | Website:  www.openfoam.com                      |
|    \\/     M anipulation  |                                                 |
\*---------------------------------------------------------------------------*/
FoamFile
{
    version     2.0;
    format      ascii;
    class       surfaceScalarField;
    location    "11";
    object      phi;
}
// * * * * * * * * * * * * * * * * * * * * * * * * * * * * * * * * * * * * * //

dimensions      [0 3 -1 0 0 0 0];
oriented        oriented;


internalField   nonuniform List<scalar> 
4262
(
0.106582
0.471406
0.0946605
0.705508
0.068583
0.858381
0.0471884
1.02016
0.0313824
1.21432
0.0202739
1.44933
0.0128668
1.73327
0.00767378
2.07623
0.00355187
2.48937
-0.000148445
2.98599
-0.00388727
2.98603
-0.00793772
2.48929
-0.0130337
2.07613
-0.0203995
1.73323
-0.0314807
1.4493
-0.0472808
1.21432
-0.0686668
1.02015
-0.0947142
0.858351
-0.106617
0.705489
0.471371
0.112944
0.358461
0.134235
0.684217
0.118159
0.874457
0.094474
1.04384
0.071255
1.23754
0.0499601
1.47062
0.0320197
1.75121
0.01827
2.08998
0.0078807
2.49975
-0.000520627
2.99439
-0.00888898
2.9944
-0.0192551
2.49966
-0.0330627
2.08994
-0.0509628
1.75113
-0.072121
1.47046
-0.0951415
1.23734
-0.118635
1.04364
-0.134563
0.874279
-0.113116
0.684042
0.358255
0.0897699
0.268692
0.121924
0.652063
0.116598
0.879783
0.0989024
1.06154
0.0796301
1.25681
0.0608986
1.48935
0.0431239
1.76899
0.0269003
2.1062
0.0129898
2.51367
-0.00109908
3.00848
-0.0150988
3.0084
-0.0288242
2.51339
-0.0447094
2.10583
-0.0620831
1.7685
-0.0805111
1.48889
-0.0996298
1.25646
-0.117255
1.06127
-0.122423
0.879447
-0.0899999
0.651619
0.268255
0.0570974
0.211594
0.0954129
0.613747
0.0980494
0.877147
0.087486
1.0721
0.073165
1.27113
0.0599967
1.50252
0.0462641
1.78272
0.0314576
2.12101
0.0158548
2.52927
-0.00166454
3.026
-0.0188292
3.02556
-0.0338663
2.52842
-0.0483176
2.12028
-0.0618417
1.78203
-0.0747957
1.50184
-0.0888177
1.27048
-0.0990287
1.07148
-0.0960691
0.876488
-0.0573535
0.612903
0.210902
0.0294976
0.182097
0.0635541
0.579691
0.0730153
0.867685
0.0688241
1.07629
0.0597641
1.28019
0.0495349
1.51275
0.0385741
1.79368
0.0269414
2.13264
0.0135378
2.54267
-0.00210811
3.04165
-0.0176172
3.04107
-0.0306402
2.54145
-0.0418605
2.1315
-0.0523858
1.79255
-0.06205
1.51151
-0.0706451
1.27907
-0.0743416
1.07517
-0.0644235
0.866569
-0.0298218
0.578302
0.18108
0.0107327
0.171364
0.0331099
0.557314
0.0440357
0.85676
0.0460572
1.07427
0.043729
1.28252
0.0384286
1.51805
0.0315092
1.8006
0.0225061
2.14164
0.0107905
2.55439
-0.00266423
3.0551
-0.0160616
3.05447
-0.0273785
2.55276
-0.0354234
2.13954
-0.0414151
1.79854
-0.0460813
1.51617
-0.0478771
1.28087
-0.0453732
1.07267
-0.033946
0.855142
-0.011108
0.555464
0.169972
0.000938523
0.170425
0.0118043
0.546448
0.0210488
0.847515
0.0271896
1.06813
0.0307273
1.27899
0.0304565
1.51832
0.0265187
1.80454
0.0190327
2.14913
0.00879847
2.56462
-0.0034688
3.06737
-0.0153927
3.06639
-0.024831
2.5622
-0.0312929
2.146
-0.0342261
1.80148
-0.0336772
1.51562
-0.0294448
1.27664
-0.0227269
1.06595
-0.0127919
0.845207
-0.00134853
0.54402
0.168623
-0.00208637
0.172512
0.00167657
0.542685
0.00839525
0.840796
0.0153459
1.06118
0.0206819
1.27365
0.0225643
1.51644
0.0206774
1.80642
0.0153121
2.1545
0.00671318
2.57322
-0.00454989
3.07863
-0.0153456
3.07719
-0.0232287
2.57008
-0.0276145
2.15039
-0.0284778
1.80234
-0.0254594
1.5126
-0.018995
1.27017
-0.0109785
1.05794
-0.00318628
0.837415
0.00156299
0.539271
0.170186
-0.00120503
0.173717
0.00014302
0.541337
0.00486818
0.836071
0.0107228
1.05533
0.0152828
1.26909
0.0169114
1.51481
0.0155629
1.80777
0.0112423
2.15882
0.00394308
2.58052
-0.00585335
3.08843
-0.0153325
3.08667
-0.0217945
2.57655
-0.024835
2.15343
-0.0245819
1.80209
-0.0213503
1.50937
-0.0152984
1.26412
-0.0080571
1.0507
-0.00198683
0.831345
0.000527027
0.536757
0.170713
-0.000238439
0.173955
0.000318697
0.54078
0.00374958
0.83264
0.00820804
1.05087
0.0115637
1.26573
0.0125321
1.51384
0.010954
1.80935
0.0068936
2.16288
0.000565644
2.58685
-0.00759744
3.09659
-0.0151211
3.09419
-0.0194423
2.58087
-0.021396
2.15538
-0.0210137
1.80171
-0.0182265
1.50659
-0.0132144
1.25911
-0.00729136
1.04477
-0.00257279
0.826626
-0.000524164
0.534708
0.170189
-0.000523936
0.174479
-0.000675106
0.540931
0.00123376
0.830732
0.0042503
1.04785
0.00666686
1.26332
0.00748326
1.51303
0.00625746
1.81058
0.00280406
2.16633
-0.00266086
2.59231
-0.00949375
3.10343
-0.0153608
3.10006
-0.0183932
2.5839
-0.0194194
2.15641
-0.0181736
1.80046
-0.0150037
1.50342
-0.0105152
1.25462
-0.00566731
1.03992
-0.00202981
0.822989
-0.000505711
0.533184
0.169683
-0.000973527
0.175453
-0.00180777
0.541765
-0.0014006
0.830324
8.67579e-05
1.04636
0.00143258
1.26197
0.00184771
1.51261
0.000791114
1.81163
-0.0019804
2.1691
-0.00632475
2.59666
-0.0117648
3.10887
-0.0159901
3.10429
-0.0178331
2.58574
-0.0174688
2.15605
-0.0154496
1.79844
-0.0122218
1.50019
-0.00830496
1.2507
-0.00444024
1.03606
-0.00162282
0.820171
-0.000385008
0.531946
0.169298
-0.00105418
0.176507
-0.00236501
0.543076
-0.0027629
0.830722
-0.00266639
1.04627
-0.00258274
1.26189
-0.00312231
1.51315
-0.00457518
1.81309
-0.00711462
2.17164
-0.0106648
2.60021
-0.0147342
3.11293
-0.0174785
3.10703
-0.018051
2.58631
-0.0166832
2.15468
-0.0141813
1.79594
-0.0110207
1.49703
-0.00763394
1.24732
-0.00448333
1.03291
-0.0020688
0.817757
-0.00065186
0.53053
0.168646
-0.00111637
0.177623
-0.00279724
0.544757
-0.00376079
0.831686
-0.00454656
1.04705
-0.00564363
1.26298
-0.00721205
1.51472
-0.00939221
1.81527
-0.012203
2.17445
-0.0154633
2.60347
-0.0185082
3.11598
-0.0199296
3.10845
-0.0192864
2.58567
-0.0172489
2.15264
-0.0143527
1.79304
-0.011172
1.49385
-0.0080185
1.24416
-0.00517175
1.03006
-0.00279388
0.815379
-0.00100177
0.528737
0.167645
-0.0014059
0.179029
-0.00356765
0.546919
-0.00541951
0.833538
-0.00715951
1.04879
-0.00916783
1.26499
-0.0115892
1.51714
-0.0144495
1.81813
-0.0176588
2.17766
-0.0208768
2.60669
-0.0232272
3.11833
-0.0233674
3.10859
-0.0217263
2.58403
-0.0190059
2.14992
-0.0156866
1.78972
-0.0122615
1.49042
-0.00900129
1.2409
-0.00605509
1.02712
-0.0034515
0.812775
-0.00126441
0.52655
0.16638
-0.00183221
0.180861
-0.00465338
0.54974
-0.00722778
0.836112
-0.00978687
1.05135
-0.0127163
1.26792
-0.016114
1.52054
-0.0199059
1.82192
-0.0238278
2.18158
-0.0273469
2.6102
-0.0293904
3.12037
-0.0286165
3.10782
-0.0259063
2.58132
-0.0221378
2.14615
-0.0180464
1.78563
-0.0140562
1.48643
-0.0103964
1.23724
-0.00713572
1.02386
-0.00416053
0.8098
-0.00152633
0.523916
0.164854
-0.0024479
0.183309
-0.00621086
0.553503
-0.00984163
0.839743
-0.0134922
1.055
-0.0174667
1.2719
-0.0218559
1.52493
-0.0265499
1.82661
-0.0312338
2.18627
-0.0351651
2.61414
-0.0370228
3.12223
-0.035413
3.10621
-0.0315726
2.57748
-0.0267643
2.14134
-0.0217909
1.78066
-0.0170792
1.48172
-0.0127989
1.23296
-0.00891755
1.01997
-0.00526131
0.806144
-0.00193994
0.520595
0.162914
-0.00301241
0.186322
-0.00763211
0.558122
-0.0120436
0.844154
-0.0166573
1.05962
-0.0219794
1.27722
-0.0279322
1.53088
-0.0342448
1.83292
-0.0403192
2.19234
-0.0451283
2.61894
-0.0469987
3.1241
-0.0444824
3.10369
-0.0392761
2.57227
-0.0330209
2.13509
-0.0266687
1.77431
-0.0207332
1.47578
-0.0154313
1.22766
-0.0107379
1.01528
-0.00636821
0.801774
-0.00235824
0.516585
0.160556
-0.00416843
0.19049
-0.0105596
0.564514
-0.016684
0.850279
-0.0228287
1.06576
-0.0294694
1.28386
-0.0367025
1.53811
-0.0443069
1.84053
-0.0515829
2.19962
-0.0571864
2.62455
-0.0589993
3.12591
-0.0554467
3.10014
-0.0487491
2.56558
-0.0409557
2.12729
-0.0332406
1.76659
-0.0261361
1.46868
-0.019783
1.22131
-0.0139877
1.00949
-0.00833513
0.796121
-0.00305871
0.511308
0.157497
-0.00507012
0.19556
-0.0125875
0.572031
-0.0200317
0.857723
-0.0279174
1.07365
-0.0369959
1.29294
-0.0468943
1.54801
-0.057042
1.85068
-0.0663643
2.20894
-0.0731637
2.63135
-0.0748671
3.12762
-0.0698925
3.09516
-0.0611944
2.55688
-0.0511962
2.1173
-0.0412231
1.75662
-0.0319665
1.45942
-0.0237114
1.21305
-0.0164152
1.00219
-0.00970448
0.789411
-0.00359701
0.505201
0.1539
-0.00735849
0.202919
-0.018272
0.582944
-0.0282323
0.867683
-0.0381973
1.08361
-0.0490841
1.30382
-0.0610102
1.55994
-0.0732923
1.86296
-0.084563
2.22021
-0.0924784
2.63926
-0.093886
3.12903
-0.0871563
3.08843
-0.076096
2.54582
-0.0636918
2.10489
-0.051579
1.74451
-0.040543
1.44839
-0.0307823
1.20329
-0.0218917
0.993299
-0.0130797
0.780599
-0.00474435
0.496866
0.149156
-0.00903044
0.211949
-0.0219911
0.595905
-0.0349898
0.880682
-0.048633
1.09725
-0.0638663
1.31906
-0.0797896
1.57586
-0.095458
1.87863
-0.108974
2.23373
-0.117759
2.64805
-0.118249
3.12952
-0.109047
3.07923
-0.0950063
2.53178
-0.0794554
2.08934
-0.064115
1.72916
-0.0498493
1.43412
-0.0370022
1.19044
-0.0255286
0.981825
-0.0149489
0.770019
-0.00548131
0.487398
0.143674
-0.0141075
0.226057
-0.0332181
0.615016
-0.0499771
0.897441
-0.0668451
1.11412
-0.0851411
1.33735
-0.104655
1.59538
-0.123565
1.89754
-0.139356
2.24952
-0.148749
2.65744
-0.147772
3.12854
-0.135484
3.06694
-0.117838
2.51413
-0.098641
2.07014
-0.0799527
1.71048
-0.0628134
1.41698
-0.0476734
1.1753
-0.0339063
0.968058
-0.020301
0.756414
-0.00732486
0.474422
0.13635
-0.0177631
0.24382
-0.0418837
0.639136
-0.0655188
0.921076
-0.0895595
1.13816
-0.114799
1.36259
-0.139477
1.62005
-0.161761
1.91982
-0.179094
2.26685
-0.187921
2.66627
-0.184229
3.12485
-0.167751
3.05047
-0.145837
2.49222
-0.12256
2.04687
-0.0999145
1.68783
-0.0787112
1.39578
-0.0590411
1.15563
-0.0409189
0.949936
-0.0237395
0.739234
-0.00825418
0.458936
0.128095
-0.033407
0.277227
-0.0690021
0.674731
-0.0987983
0.950872
-0.128455
1.16782
-0.158291
1.39243
-0.186824
1.64859
-0.211365
1.94436
-0.228538
2.28403
-0.235065
2.67279
-0.227113
3.11689
-0.205428
3.02878
-0.178528
2.46532
-0.150475
2.01881
-0.123297
1.66065
-0.0982903
1.37077
-0.0758612
1.1332
-0.0547135
0.928788
-0.0333846
0.717905
-0.0112574
0.436809
0.116838
-0.0447786
0.322005
-0.10226
0.732213
-0.146067
0.994679
-0.185555
1.20731
-0.221033
1.42791
-0.251951
1.67951
-0.276153
1.96856
-0.290689
2.29856
-0.292776
2.67488
-0.278576
3.1027
-0.250502
3.00071
-0.218315
2.43313
-0.185822
1.98632
-0.154665
1.6295
-0.12528
1.34139
-0.0977475
1.10567
-0.0710462
0.902087
-0.04129
0.688149
-0.0130105
0.40853
0.103828
-0.027479
0.349484
-0.073941
0.778675
-0.118689
1.03943
-0.162673
1.25129
-0.204655
1.46989
-0.244383
1.71923
-0.279505
2.00368
-0.308301
2.32736
-0.326513
2.69309
-0.32722
3.1034
-0.306992
2.98048
-0.273948
2.40009
-0.233992
1.94636
-0.191006
1.58651
-0.147529
1.29791
-0.104727
1.06287
-0.0641803
0.86154
-0.0294302
0.653399
-0.00643413
0.385534
0.0973934
-0.000373224
0.349857
-0.0246586
0.802961
-0.0587396
1.07351
-0.0966884
1.28924
-0.13408
1.50728
-0.169578
1.75473
-0.201578
2.03568
-0.227367
2.35315
-0.24234
2.70806
-0.240528
3.10159
-0.219284
2.95923
-0.187175
2.36798
-0.150135
1.90932
-0.111886
1.54826
-0.0750406
1.26106
-0.0415874
1.02942
-0.0119007
0.831854
0.00639937
0.635099
0.00761465
0.384318
0.105008
0.00344072
0.346417
-0.0096432
0.816045
-0.0336652
1.09753
-0.0618379
1.31741
-0.0922083
1.53765
-0.122246
1.78477
-0.150224
2.06366
-0.17278
2.3757
-0.185718
2.721
-0.183685
3.09956
-0.164807
2.94036
-0.137536
2.34071
-0.107541
1.87933
-0.0779528
1.51867
-0.0502282
1.23334
-0.0255684
1.00476
-0.00620466
0.81249
0.0056563
0.623238
0.0058287
0.384146
0.110837
0.00608875
0.340328
-0.00352502
0.825658
-0.0227592
1.11676
-0.045225
1.33988
-0.0689107
1.56134
-0.0937326
1.80959
-0.117686
2.08762
-0.137307
2.39532
-0.149009
2.73271
-0.14774
3.09829
-0.131983
2.9246
-0.109509
2.31823
-0.085379
1.8552
-0.0621516
1.49545
-0.0408657
1.21205
-0.0220518
0.985944
-0.00722349
0.797661
0.00128153
0.614733
0.00228324
0.383144
0.11312
0.00776355
0.332564
0.000930842
0.832491
-0.0166648
1.13436
-0.0358656
1.35908
-0.0560237
1.5815
-0.0772138
1.83078
-0.0978265
2.10823
-0.115061
2.41256
-0.125797
2.74344
-0.125193
3.09769
-0.111933
2.91134
-0.0929635
2.29926
-0.0726793
1.83491
-0.053334
1.4761
-0.0360875
1.19481
-0.0213312
0.971188
-0.00998089
0.786311
-0.00245074
0.607203
-0.000268099
0.380962
0.112852
0.00654433
0.32602
0.00205819
0.836977
-0.0131213
1.14954
-0.0306577
1.37662
-0.0490226
1.59986
-0.0678099
1.84957
-0.0859271
2.12635
-0.101387
2.42802
-0.111465
2.75352
-0.111641
3.09786
-0.100241
2.89994
-0.0833274
2.28235
-0.0653537
1.81694
-0.048565
1.45931
-0.0338163
1.18006
-0.021386
0.958757
-0.0117513
0.776676
-0.00491172
0.600363
-0.00103367
0.377084
0.111818
0.00426517
0.321755
0.00148593
0.839756
-0.011645
1.16267
-0.0275687
1.39254
-0.044644
1.61694
-0.0621086
1.86703
-0.0787046
2.14294
-0.0932601
2.44257
-0.103241
2.7635
-0.104389
3.09901
-0.09469
2.89024
-0.0797954
2.26746
-0.0635611
1.80071
-0.0480486
1.4438
-0.0344205
1.16643
-0.0228971
0.947234
-0.0134528
0.767232
-0.00627913
0.59319
-0.00171214
0.372517
0.110106
0.00179251
0.319962
-0.000788731
0.842338
-0.0121005
1.17398
-0.0260328
1.40647
-0.0417855
1.63269
-0.0583394
1.88359
-0.0742436
2.15885
-0.0886856
2.45702
-0.0990508
2.77386
-0.101391
3.10135
-0.0928845
2.88173
-0.0785442
2.25312
-0.0631152
1.78528
-0.0485556
1.42924
-0.0355144
1.15339
-0.0242534
0.935973
-0.0148859
0.757865
-0.00741458
0.585718
-0.00217117
0.367273
0.107935
-0.000354739
0.320317
-0.00423289
0.846216
-0.0138152
1.18356
-0.0259756
1.41863
-0.0403237
1.64704
-0.0559119
1.89918
-0.0714855
2.17442
-0.0862457
2.47178
-0.0975784
2.7852
-0.101859
3.10563
-0.0956579
2.87553
-0.0831013
2.24056
-0.0677488
1.76992
-0.0526118
1.4141
-0.0389043
1.13968
-0.0271011
0.92417
-0.0171588
0.747922
-0.00910785
0.577667
-0.00291602
0.361081
0.105019
-0.00191278
0.32223
-0.00662458
0.850928
-0.0155223
1.19246
-0.0266501
1.42976
-0.0399251
1.66031
-0.0545973
1.91385
-0.0699425
2.18976
-0.0850777
2.48691
-0.0974754
2.7976
-0.103427
3.11158
-0.0980951
2.8702
-0.0854332
2.2279
-0.0708445
1.75534
-0.0557914
1.39905
-0.0420828
1.12597
-0.0300576
0.912144
-0.0192834
0.737148
-0.0102123
0.568596
-0.00339837
0.354267
0.101621
-0.00344851
0.325678
-0.00822896
0.855708
-0.0166168
1.20085
-0.0271782
1.44032
-0.0398402
1.67298
-0.0538574
1.92787
-0.0690409
2.20495
-0.0845469
2.50242
-0.0982933
2.81134
-0.106822
3.12011
-0.104925
2.8683
-0.0942354
2.21721
-0.0782909
1.73939
-0.0625188
1.38328
-0.047413
1.11087
-0.0337448
0.898476
-0.0226075
0.726011
-0.0126592
0.558648
-0.00426812
0.345876
0.0973524
-0.0039746
0.329653
-0.00916248
0.860896
-0.0171993
1.20889
-0.0273684
1.45049
-0.0396151
1.68522
-0.0532432
1.94149
-0.0684277
2.22013
-0.0844681
2.51846
-0.0997257
2.8266
-0.110656
3.13104
-0.110861
2.86851
-0.101215
2.20756
-0.08642
1.7246
-0.0683247
1.36518
-0.0518315
1.09437
-0.0378457
0.88449
-0.0245973
0.712762
-0.0133806
0.547431
-0.00475405
0.33725
0.0925984
-0.003946
0.333599
-0.00956277
0.866513
-0.0173557
1.21668
-0.0271778
1.46031
-0.0390753
1.69712
-0.0524687
1.95489
-0.067731
2.2354
-0.0842653
2.53499
-0.100755
2.84309
-0.114235
3.14452
-0.11719
2.87146
-0.108714
2.19909
-0.0936957
1.70958
-0.0770035
1.34849
-0.0597447
1.07711
-0.0431004
0.867846
-0.0292494
0.698911
-0.0166756
0.534858
-0.00572385
0.326298
0.0868745
-0.00383751
0.337437
-0.00971264
0.872388
-0.0172862
1.22425
-0.0267767
1.4698
-0.0382816
1.70862
-0.0514469
1.96805
-0.0667441
2.25069
-0.0837683
2.55202
-0.101771
2.86109
-0.117775
3.16053
-0.124232
2.87792
-0.119164
2.19402
-0.105059
1.69547
-0.0856348
1.32907
-0.064368
1.05585
-0.0462995
0.849778
-0.0309755
0.683587
-0.0173132
0.521195
-0.0061936
0.315178
0.0806809
-0.00374443
0.341181
-0.00963708
0.878281
-0.0169499
1.23157
-0.0261142
1.47897
-0.0372319
1.71974
-0.0501536
1.98097
-0.065439
2.26598
-0.0829378
2.56951
-0.102207
2.88036
-0.120995
3.17931
-0.13104
2.88797
-0.127666
2.19064
-0.114322
1.68213
-0.0945769
1.30932
-0.0744996
1.03577
-0.055722
0.831
-0.037939
0.665804
-0.0209029
0.504159
-0.00686123
0.301137
0.0738197
-0.00364403
0.344825
-0.00946926
0.884106
-0.0164965
1.23859
-0.0253048
1.48778
-0.035988
1.73043
-0.0486087
1.99359
-0.0637686
2.28114
-0.0815644
2.58731
-0.101904
2.9007
-0.123238
3.20065
-0.136828
2.90156
-0.138196
2.19201
-0.128862
1.67279
-0.110153
1.29061
-0.0854436
1.01106
-0.0565267
0.802083
-0.0341061
0.643384
-0.0181993
0.488252
-0.00534939
0.288287
0.0684703
-0.00347707
0.348302
-0.00911516
0.889744
-0.0158415
1.24532
-0.024294
1.49623
-0.0345488
1.74068
-0.0468267
2.00587
-0.0617835
2.29609
-0.0797698
2.6053
-0.101151
2.92208
-0.124726
3.22422
-0.142
2.91883
-0.145667
2.19568
-0.136554
1.66368
-0.119801
1.27386
-0.093304
0.984564
-0.0676813
0.77646
-0.0434283
0.619131
-0.0218122
0.466636
-0.00451663
0.270991
0.0639537
-0.00326783
0.35157
-0.00869374
0.89517
-0.0151099
1.25174
-0.0231718
1.50429
-0.0329518
1.75046
-0.044828
2.01775
-0.0594972
2.31076
-0.0775273
2.62333
-0.0996291
2.94418
-0.124968
3.24956
-0.145371
2.93923
-0.154242
2.20455
-0.152498
1.66194
-0.135136
1.2565
-0.110027
0.959455
-0.0742417
0.740675
-0.0335883
0.578477
-0.00364126
0.436689
0.0107345
0.256616
0.0746882
-0.00301893
0.354589
-0.0081658
0.900317
-0.0142544
1.25782
-0.0219238
1.51196
-0.0312337
1.75977
-0.0426701
2.02918
-0.056971
2.32506
-0.0749235
2.64128
-0.0973956
2.96666
-0.124871
3.27704
-0.149873
2.96424
-0.164378
2.21905
-0.162689
1.66025
-0.150838
1.24465
-0.127651
0.936267
-0.092298
0.705322
-0.0428235
0.529003
0.00512553
0.38874
0.00973588
0.252005
0.0844241
-0.00284661
0.357435
-0.00762623
0.905096
-0.0133801
1.26358
-0.0206077
1.51919
-0.0294505
1.76861
-0.0404067
2.04014
-0.0542973
2.33895
-0.072065
2.65905
-0.0949842
2.98957
-0.123873
3.30592
-0.150548
2.99091
-0.167444
2.23595
-0.176085
1.66889
-0.172483
1.24105
-0.152676
0.916461
-0.107532
0.660178
-0.0229509
0.444422
0.0897507
0.276039
0.141276
0.20048
0.2257
-0.00268284
0.360118
-0.0072242
0.909638
-0.0128202
1.26917
-0.0198976
1.52626
-0.0286875
1.7774
-0.0397745
2.05123
-0.0541388
2.35332
-0.0730389
2.67795
-0.0983214
3.01486
-0.131844
3.33945
-0.166263
3.02533
-0.192242
2.26193
-0.204243
1.68089
-0.203146
1.23995
-0.18883
0.902145
-0.17378
0.645129
-0.19675
0.467392
-0.379219
0.458507
-0.887855
0.709116
0.877224
-1.53938
-0.00245874
0.362577
-0.00673845
0.913917
-0.0120804
1.27452
-0.0188666
1.53305
-0.0273696
1.78591
-0.0382668
2.06213
-0.0526724
2.36772
-0.0721272
2.6974
-0.0988227
3.04155
-0.135308
3.37593
-0.174499
3.06452
-0.206355
2.29378
-0.238446
1.71298
-0.257778
1.25928
-0.275981
0.920349
-0.350338
0.719486
-0.667321
0.784375
-1.34424
1.13542
-1.96408
1.32896
1.22663
-2.31349
-0.00222757
0.364805
-0.00621851
0.917908
-0.0112818
1.27958
-0.0177708
1.53954
-0.0259729
1.79411
-0.0366495
2.0728
-0.0510062
2.38208
-0.0707921
2.71719
-0.0988081
3.06957
-0.138695
3.41582
-0.1847
3.11053
-0.22617
2.33525
-0.259646
1.74646
-0.28574
1.28537
-0.371708
1.00632
-0.709687
1.05747
-1.44191
1.5166
-2.04847
1.74198
-2.3033
1.58379
1.35011
-2.42678
-0.00198467
0.366789
-0.00566877
0.921592
-0.0104131
1.28432
-0.0165755
1.5457
-0.0244149
1.80195
-0.0348013
2.08319
-0.0490241
2.3963
-0.0691096
2.73727
-0.098464
3.09892
-0.141722
3.45908
-0.193928
3.16273
-0.24114
2.38247
-0.289232
1.79455
-0.381115
1.37726
-0.671513
1.29671
-1.3532
1.73915
-1.97244
2.13584
-2.22856
1.9981
-2.35124
1.70647
1.42075
-2.42187
-0.00175137
0.368541
-0.00509051
0.924931
-0.00951834
1.28875
-0.0153042
1.55149
-0.0228002
1.80944
-0.0328608
2.09325
-0.0468655
2.41031
-0.0671026
2.75751
-0.0974532
3.12927
-0.143162
3.50479
-0.201379
3.22095
-0.261499
2.44259
-0.322869
1.85592
-0.481903
1.53629
-1.00369
1.8185
-1.70399
2.43945
-2.06392
2.49578
-2.22876
2.16294
-2.32023
1.79794
1.49201
-2.39149
-0.00160049
0.370141
-0.00474252
0.928073
-0.00906729
1.29308
-0.0146516
1.55707
-0.0220463
1.81684
-0.0319855
2.10319
-0.0459832
2.42431
-0.0664646
2.77799
-0.0979543
3.16076
-0.147013
3.55384
-0.210416
3.28435
-0.269768
2.50194
-0.3633
1.94945
-0.698593
1.87158
-1.39003
2.50994
-1.91196
2.96138
-2.13268
2.7165
-2.25044
2.28071
-2.3333
1.88079
1.56049
-2.40178
-0.00152856
0.37167
-0.00471464
0.93126
-0.00912255
1.29748
-0.0148056
1.56275
-0.0222831
1.82432
-0.0323321
2.11324
-0.0465567
2.43853
-0.0676485
2.79908
-0.100601
3.19372
-0.153355
3.6066
-0.222665
3.35366
-0.296916
2.57619
-0.469229
2.12176
-0.944178
2.34653
-1.5832
3.14896
-1.90827
3.28645
-2.07296
2.88119
-2.19781
2.40555
-2.29715
1.98013
1.63116
-2.36781
-0.00139647
0.373066
-0.00460175
0.934465
-0.00907842
1.30196
-0.0148541
1.56853
-0.0223508
1.83181
-0.032468
2.12335
-0.0468822
2.45295
-0.0685255
2.82073
-0.102705
3.22789
-0.158624
3.66252
-0.233252
3.42829
-0.321555
2.66449
-0.55868
2.35889
-1.13929
2.92714
-1.67857
3.68825
-1.90833
3.51621
-2.06788
3.04074
-2.21673
2.5544
-2.34917
2.11257
1.70245
-2.42046
-0.00126712
0.374333
-0.00453073
0.937728
-0.00905307
1.30648
-0.0149048
1.57438
-0.0223924
1.8393
-0.0324733
2.13343
-0.0468863
2.46736
-0.0686932
2.84253
-0.103912
3.26311
-0.163665
3.72227
-0.245182
3.50981
-0.362767
2.78208
-0.682271
2.67839
-1.27951
3.52437
-1.68857
4.09731
-1.89303
3.72066
-2.02449
3.17219
-2.14508
2.67499
-2.23467
2.20216
1.7022
-2.23442
-0.00106013
0.375393
-0.00425545
0.940924
-0.00878904
1.31102
-0.0146538
1.58025
-0.022041
1.84669
-0.0320162
2.14341
-0.0463823
2.48172
-0.0686505
2.8648
-0.104813
3.29928
-0.16768
3.78514
-0.254673
3.5968
-0.402175
2.92958
-0.777337
3.05356
-1.33195
4.07898
-1.64606
4.41143
-1.84521
3.91981
-1.9674
3.29439
-1.99086
2.69845
-1.96404
2.17534
1.72639
-1.98823
-0.000885943
0.376279
-0.00413488
0.944173
-0.00854907
1.31543
-0.0143572
1.58606
-0.021443
1.85377
-0.0310047
2.15297
-0.0447715
2.49549
-0.0663229
2.88635
-0.102104
3.33506
-0.166165
3.8492
-0.257619
3.68825
-0.430602
3.10256
-0.828703
3.45166
-1.29713
4.54741
-1.51141
4.62571
-1.61068
4.01907
-1.65419
3.33791
-1.53943
2.58368
-1.06726
1.70318
0.65913
-0.000566167
0.376845
-0.00351128
0.947118
-0.00777728
1.3197
-0.0135243
1.5918
-0.0203506
1.8606
-0.0297692
2.16239
-0.0434897
2.50921
-0.0655097
2.90837
-0.103557
3.3731
-0.173938
3.91958
-0.285625
3.79994
-0.49195
3.30889
-0.926172
3.88588
-1.33671
4.95794
-1.47929
4.7683
-1.50958
4.04936
-1.44023
3.26855
-1.23837
2.38182
-0.707576
1.17238
-0.0484455
-0.000322694
0.377168
-0.00308551
0.949881
-0.00696418
1.32358
-0.0125508
1.59739
-0.0187308
1.86678
-0.0276885
2.17135
-0.0409513
2.52247
-0.0629786
2.9304
-0.102641
3.41277
-0.179245
3.99618
-0.311496
3.93219
-0.546527
3.54392
-1.00555
4.3449
-1.34419
5.29659
-1.43092
4.85503
-1.42828
4.04672
-1.29551
3.13578
-0.877827
1.96414
-0.165138
0.459694
-0.213583
0.000142045
0.377026
-0.00186492
0.951888
-0.00543474
1.32715
-0.0105953
1.60255
-0.0157953
1.87198
-0.0239116
2.17946
-0.0358953
2.53446
-0.0568224
2.95133
-0.0971539
3.4531
-0.182097
4.08113
-0.330809
4.08091
-0.590544
3.80365
-1.0496
4.80396
-1.29574
5.54273
-1.35274
4.91203
-1.32369
4.01766
-1.05539
2.86748
-0.451969
1.36072
0.0131135
-0.00538933
-0.20047
0.000412512
0.376614
-0.00100569
0.953306
-0.00403032
1.33017
-0.00824114
1.60676
-0.0120878
1.87583
-0.0186848
2.18606
-0.0282023
2.54398
-0.0468439
2.96997
-0.0856288
3.49188
-0.182845
4.17834
-0.359711
4.25777
-0.634675
4.07862
-1.05214
5.22142
-1.2214
5.71199
-1.247
4.93763
-1.13868
3.90934
-0.823131
2.55194
-0.185314
0.7229
0.0105948
-0.201298
-0.189875
0.00102884
0.375585
0.000417439
0.953917
-0.00183151
1.33242
-0.00410026
1.60903
-0.0069103
1.87864
-0.0111069
2.19026
-0.0171857
2.55005
-0.0313552
2.98414
-0.065567
3.52609
-0.166814
4.27959
-0.367073
4.45803
-0.659925
4.37147
-1.00265
5.56415
-1.11711
5.82645
-1.13051
4.95103
-0.956611
3.73544
-0.508662
2.10399
0.0128741
0.201365
0.0292111
-0.217635
-0.160664
0.00138916
0.374196
0.00157606
0.95373
0.000169082
1.33383
0.000865142
1.60833
-0.00109515
1.8806
2.19891e-05
2.18914
-0.00168169
2.55176
-0.00607435
2.98853
-0.0292669
3.54929
-0.109968
4.36029
-0.305166
4.65323
-0.61254
4.67884
-0.880178
5.83179
-0.950117
5.89638
-0.945392
4.94631
-0.800136
3.59018
-0.322357
1.62621
-0.0561818
-0.0648105
-0.0271923
-0.246624
-0.187856
0.00205284
0.372143
0.00317719
0.952606
0.00406606
1.33294
0.00586333
1.60654
0.00863815
1.87782
0.0138835
2.1839
0.0231231
2.54252
0.0341019
2.97755
0.0388542
3.54454
0.0111036
4.38804
-0.17958
4.84391
-0.502074
5.00134
-0.696837
6.02655
-0.781364
5.98091
-0.826668
4.99161
-0.719799
3.48331
-0.326648
1.23306
-0.208541
-0.182918
-0.0952537
-0.359911
-0.28311
0.00248724
0.369656
0.00445288
0.95064
0.00731575
1.33007
0.0117684
1.60208
0.0188073
1.87078
0.0305175
2.17219
0.0506626
2.52237
0.0837912
2.94442
0.14545
3.48288
0.198199
4.33529
0.00473007
5.03738
-0.355748
5.36182
-0.495593
6.1664
-0.579908
6.06523
-0.594789
5.00649
-0.510533
3.39905
-0.39038
1.11291
-0.316988
-0.25631
-0.15
-0.526899
-0.43311
0.00281071
0.366845
0.00576547
0.947686
0.0104481
1.32539
0.0180018
1.59453
0.0296202
1.85916
0.0486682
2.15314
0.0813027
2.48974
0.146518
2.87921
0.283263
3.34613
0.41845
4.20011
0.259007
5.19682
-0.106365
5.72719
-0.214698
6.27473
-0.2751
6.12563
-0.283008
5.0144
-0.239814
3.35586
-0.308132
1.18122
-0.328358
-0.236083
-0.160717
-0.694541
-0.593827
0.00354267
0.363302
0.00677681
0.944451
0.0131215
1.31905
0.0228311
1.58482
0.0385461
1.84345
0.0649008
2.12678
0.113041
2.4416
0.215468
2.77678
0.411159
3.15044
0.613627
3.99764
0.581071
5.22938
0.271973
6.03629
0.225233
6.32147
0.261846
6.08902
0.373528
4.90272
0.370929
3.35846
0.162322
1.38983
0.00979896
-0.0835608
-0.0284535
-0.656288
-0.62228
0.00418507
0.359117
0.00679309
0.941843
0.0138164
1.31202
0.0253996
1.57324
0.0440258
1.82482
0.0754338
2.09537
0.137103
2.37993
0.264539
2.64935
0.477503
2.93748
0.746981
3.72816
0.837644
5.13872
0.585522
6.28841
0.49682
6.41017
0.583405
6.00243
0.702693
4.78343
0.727228
3.33392
0.561388
1.55567
0.366677
0.11115
0.139645
-0.429256
-0.482635
0.00448212
0.354635
0.00590772
0.940418
0.0116041
1.30633
0.0218845
1.56296
0.039135
1.80757
0.0702283
2.06428
0.13246
2.3177
0.250606
2.5312
0.431431
2.75665
0.732206
3.42738
0.914204
4.95672
0.733814
6.4688
0.653094
6.49089
0.75559
5.89994
0.841365
4.69766
0.859886
3.3154
0.770838
1.64472
0.528472
0.353516
0.222609
-0.123393
-0.260026
0.00507937
0.349556
0.00486134
0.940636
0.00749144
1.3037
0.0144338
1.55601
0.0226743
1.79933
0.0415335
2.04542
0.0779332
2.2813
0.138388
2.47075
0.227801
2.66724
0.380692
3.27449
0.639868
4.69754
0.634541
6.47413
0.602283
6.52315
0.701239
5.80098
0.790244
4.60865
0.834207
3.27144
0.823579
1.65535
0.565987
0.611107
0.234087
0.208507
-0.0259395
0.0074783
0.342077
0.00362289
0.944491
-0.00175002
1.30907
-0.00694576
1.56121
-0.0110392
1.80343
-0.0189642
2.05335
-0.0327172
2.29505
-0.0643725
2.5024
-0.12358
2.72645
-0.195886
3.3468
-0.124748
4.6264
-0.127042
6.47642
-0.0456267
6.44173
0.140457
5.6149
0.426957
4.32215
0.693762
3.00464
0.734791
1.61432
0.485967
0.859931
0.193936
0.500538
0.167997
0.0122004
0.329877
0.00732934
0.949362
-0.00659638
1.323
-0.0248563
1.57947
-0.049297
1.82787
-0.0921801
2.09623
-0.166145
2.36902
-0.302358
2.63861
-0.526253
2.95034
-0.816114
3.63666
-1.02032
4.83061
-0.999518
6.45562
-0.738696
6.18091
-0.360257
5.23646
0.125346
3.83655
0.499419
2.63056
0.511074
1.60266
0.311061
1.05994
0.110054
0.701544
0.278051
0.0195292
0.310348
0.0142974
0.954594
-0.00675185
1.34405
-0.0371987
1.60992
-0.0841443
1.87481
-0.159536
2.17162
-0.283565
2.49304
-0.495064
2.85011
-0.836735
3.29201
-1.2774
4.07732
-1.55122
5.10443
-1.33175
6.23615
-0.891735
5.7409
-0.326018
4.67074
0.144709
3.36582
0.394483
2.38079
0.341958
1.65519
0.185413
1.21649
0.0540379
0.83292
0.332089
0.0384083
0.271939
0.0449551
0.948047
0.0213964
1.3676
-0.0220022
1.65331
-0.0870074
1.93982
-0.183747
2.26836
-0.334229
2.64353
-0.575486
3.09137
-0.948559
3.66509
-1.41706
4.54582
-1.62054
5.30791
-1.21079
5.8264
-0.655526
5.18564
-0.102918
4.11813
0.207602
3.0553
0.299939
2.28845
0.223421
1.73171
0.110626
1.32928
0.0289754
0.914571
0.361064
0.0655829
0.206356
0.0918429
0.921787
0.0698102
1.38964
0.0213226
1.7018
-0.0478195
2.00896
-0.146052
2.36659
-0.295008
2.79248
-0.518568
3.31493
-0.843208
3.98973
-1.24779
4.95041
-1.37453
5.43465
-0.908999
5.36087
-0.379149
4.65579
0.0211029
3.71788
0.192143
2.88426
0.216286
2.26431
0.15561
1.79238
0.0814679
1.40343
0.0266387
0.9694
0.387703
0.0815663
0.12479
0.155908
0.847446
0.160576
1.38497
0.12349
1.73889
0.0602419
2.07221
-0.0278305
2.45467
-0.152739
2.91739
-0.328251
3.49044
-0.560855
4.22233
-0.818508
5.20806
-0.882673
5.49881
-0.526874
5.00507
-0.138913
4.26783
0.106526
3.47244
0.196136
2.79465
0.197798
2.26265
0.152727
1.83745
0.0954879
1.46066
0.0390631
1.02582
0.426766
0.0426826
0.0821075
0.129117
0.761012
0.156699
1.35739
0.137149
1.75844
0.0932108
2.11614
0.0288651
2.51901
-0.0580737
3.00433
-0.166442
3.59881
-0.286901
4.34279
-0.390085
5.31124
-0.389117
5.49784
-0.211876
4.82783
-0.0348136
4.09076
0.0667211
3.37091
0.10161
2.75976
0.100513
2.26375
0.0804274
1.85754
0.0505194
1.49057
0.0181734
1.05817
0.44494
-0.00743184
0.0895394
0.0250054
0.728574
0.0407565
1.34164
0.0364726
1.76272
0.0141674
2.13845
-0.0255965
2.55878
-0.0789067
3.05764
-0.1469
3.6668
-0.222806
4.41869
-0.284391
5.37283
-0.284896
5.49835
-0.182253
4.72519
-0.0750752
3.98359
-0.0104475
3.30628
0.0160391
2.73328
0.020598
2.25919
0.0133411
1.86479
0.00183409
1.50208
-0.00548254
1.06549
0.439457
-0.0335208
0.12306
-0.0368758
0.731929
-0.0280995
1.33286
-0.028741
1.76336
-0.0405045
2.15021
-0.0610218
2.57929
-0.0917199
3.08834
-0.133407
3.70849
-0.17954
4.46483
-0.214235
5.40752
-0.212437
5.49655
-0.153952
4.6667
-0.0904272
3.92006
-0.0490688
3.26492
-0.0282295
2.71244
-0.0199044
2.25086
-0.0190117
1.8639
-0.0192631
1.50233
-0.0153279
1.06155
0.424129
-0.0405214
0.163582
-0.0569861
0.748394
-0.0560748
1.33195
-0.0591962
1.76649
-0.0666816
2.1577
-0.0785791
2.59119
-0.0968841
3.10664
-0.120963
3.73257
-0.148182
4.49205
-0.167815
5.42716
-0.163368
5.49211
-0.128897
4.63223
-0.090711
3.88187
-0.0635569
3.23777
-0.0468243
2.6957
-0.0374387