/*--------------------------------*- C++ -*----------------------------------*\
| =========                 |                                                 |
| \\      /  F ield         | OpenFOAM: The Open Source CFD Toolbox           |
|  \\    /   O peration     | Version:  v2012                                 |
|   \\  /    A nd           | Website:  www.openfoam.com                      |
|    \\/     M anipulation  |                                                 |
\*---------------------------------------------------------------------------*/
FoamFile
{
    version     2.0;
    format      ascii;
    class       volVectorField;
    location    "11";
    object      U;
}
// * * * * * * * * * * * * * * * * * * * * * * * * * * * * * * * * * * * * * //

dimensions      [0 1 -1 0 0 0 0];


internalField   nonuniform List<vector> 
2200
(
(0.879788 -0.0300353 0)
(1.00619 -0.0512317 0)
(1.00268 -0.0346419 0)
(0.999955 -0.0241964 0)
(1.00043 -0.0169093 0)
(0.999915 -0.0108844 0)
(0.999542 -0.00709429 0)
(0.999839 -0.00439169 0)
(1.00007 -0.00243699 0)
(1.00019 -0.000718192 0)
(1.00011 0.000853901 0)
(1.00004 0.00258826 0)
(0.999782 0.00448218 0)
(0.99948 0.00715266 0)
(0.999911 0.0109365 0)
(1.00045 0.0169439 0)
(0.999978 0.0242365 0)
(1.0027 0.0346788 0)
(1.0062 0.0512435 0)
(0.879787 0.0300501 0)
(0.71315 -0.0333231 0)
(0.997472 -0.0624105 0)
(1.03374 -0.0559985 0)
(1.02438 -0.0454693 0)
(1.0152 -0.0343741 0)
(1.01016 -0.0250512 0)
(1.00672 -0.0170134 0)
(1.00408 -0.0104589 0)
(1.00262 -0.00530639 0)
(1.00199 -0.00142716 0)
(1.002 0.00187952 0)
(1.0026 0.00572909 0)
(1.00408 0.0109014 0)
(1.00676 0.017464 0)
(1.01014 0.025457 0)
(1.01514 0.0347237 0)
(1.02431 0.0457115 0)
(1.03363 0.0561512 0)
(0.997366 0.0625361 0)
(0.71302 0.0333517 0)
(0.534149 -0.0229255 0)
(0.971684 -0.0561168 0)
(1.05782 -0.0530031 0)
(1.05285 -0.046473 0)
(1.03519 -0.0373877 0)
(1.02306 -0.0295803 0)
(1.01486 -0.0214702 0)
(1.00981 -0.0142978 0)
(1.00675 -0.00800093 0)
(1.00553 -0.00245116 0)
(1.00539 0.00335776 0)
(1.00664 0.00891269 0)
(1.00966 0.0150633 0)
(1.01461 0.0220727 0)
(1.02278 0.0300129 0)
(1.03491 0.0377178 0)
(1.05258 0.0467636 0)
(1.05757 0.0532842 0)
(0.971301 0.0562795 0)
(0.533601 0.022969 0)
(0.402635 -0.011221 0)
(0.9159 -0.0423035 0)
(1.06151 -0.043299 0)
(1.07268 -0.0404542 0)
(1.05686 -0.0345844 0)
(1.0398 -0.0283559 0)
(1.02671 -0.022339 0)
(1.01762 -0.0163143 0)
(1.01186 -0.00974191 0)
(1.00967 -0.0029664 0)
(1.00953 0.00439541 0)
(1.01164 0.0108731 0)
(1.01731 0.0172623 0)
(1.02635 0.0231615 0)
(1.03942 0.0291141 0)
(1.05647 0.0352427 0)
(1.07225 0.0410016 0)
(1.06084 0.0436198 0)
(0.915009 0.0425269 0)
(0.401651 0.0112675 0)
(0.332513 -0.00302073 0)
(0.859748 -0.0258315 0)
(1.05313 -0.031808 0)
(1.08137 -0.0311116 0)
(1.0703 -0.0279442 0)
(1.05319 -0.0231202 0)
(1.0397 -0.0187083 0)
(1.02934 -0.0139003 0)
(1.02193 -0.00852152 0)
(1.01829 -0.00241219 0)
(1.01815 0.00424412 0)
(1.02155 0.010184 0)
(1.02884 0.0153845 0)
(1.03914 0.0200719 0)
(1.05256 0.0242353 0)
(1.06961 0.0288352 0)
(1.08055 0.0317824 0)
(1.0521 0.0323406 0)
(0.858164 0.0260661 0)
(0.331053 0.00309336 0)
(0.301981 0.00104366 0)
(0.818542 -0.0121381 0)
(1.03884 -0.0182992 0)
(1.08092 -0.0205749 0)
(1.07361 -0.019753 0)
(1.05788 -0.0173663 0)
(1.0452 -0.0150258 0)
(1.03543 -0.0117112 0)
(1.02838 -0.0071176 0)
(1.02457 -0.00161341 0)
(1.02433 0.00389737 0)
(1.02772 0.0093564 0)
(1.03447 0.0136765 0)
(1.0439 0.0164512 0)
(1.05656 0.0185638 0)
(1.07225 0.0206354 0)
(1.07939 0.0212347 0)
(1.037 0.0187999 0)
(0.816127 0.0124009 0)
(0.299964 -0.000952414 0)
(0.294655 0.00178443 0)
(0.793656 -0.0031425 0)
(1.02401 -0.00784633 0)
(1.07333 -0.0113923 0)
(1.06896 -0.0128022 0)
(1.0556 -0.0134616 0)
(1.0444 -0.0126207 0)
(1.03591 -0.00985855 0)
(1.02996 -0.00605718 0)
(1.0266 -0.000987731 0)
(1.02636 0.0039645 0)
(1.02925 0.00879453 0)
(1.03475 0.0121244 0)
(1.04293 0.0144888 0)
(1.054 0.0148717 0)
(1.06726 0.0139186 0)
(1.07139 0.0122647 0)
(1.02157 0.00844298 0)
(0.790523 0.00346074 0)
(0.29181 -0.00169631 0)
(0.295995 0.00129965 0)
(0.782652 0.000422201 0)
(1.01237 -0.00212671 0)
(1.06456 -0.00579142 0)
(1.06335 -0.0080399 0)
(1.05319 -0.00991813 0)
(1.04426 -0.00980918 0)
(1.03717 -0.0080002 0)
(1.03187 -0.00491813 0)
(1.02871 -0.000421743 0)
(1.02835 0.00429942 0)
(1.03093 0.00850455 0)
(1.03578 0.0112141 0)
(1.04249 0.0125968 0)
(1.05104 0.0122507 0)
(1.061 0.00988383 0)
(1.06193 0.00719149 0)
(1.00908 0.00301937 0)
(0.778359 4.37051e-07 0)
(0.292582 -0.00118816 0)
(0.299537 0.000443462 0)
(0.780318 0.000554684 0)
(1.00629 -0.000764262 0)
(1.05902 -0.00383386 0)
(1.06071 -0.00583871 0)
(1.05411 -0.00742453 0)
(1.04731 -0.00744291 0)
(1.04133 -0.00610178 0)
(1.03664 -0.00348467 0)
(1.03357 0.000397418 0)
(1.03289 0.00456989 0)
(1.03495 0.00826558 0)
(1.03884 0.0104512 0)
(1.04432 0.0111968 0)
(1.05073 0.0104014 0)
(1.05709 0.00818824 0)
(1.05504 0.00552561 0)
(1.00141 0.00187667 0)
(0.774533 -9.97371e-05 0)
(0.294931 -0.000294678 0)
(0.300759 3.97631e-06 0)
(0.77978 0.000259175 0)
(1.00253 -0.000613516 0)
(1.05473 -0.00290691 0)
(1.05826 -0.00447232 0)
(1.05418 -0.00557478 0)
(1.04954 -0.0053649 0)
(1.04515 -0.00409286 0)
(1.04139 -0.00175228 0)
(1.0386 0.00154041 0)
(1.0377 0.00494947 0)
(1.03881 0.00772154 0)
(1.04149 0.00915374 0)
(1.04515 0.00940578 0)
(1.04958 0.00887805 0)
(1.05331 0.00701299 0)
(1.04927 0.00475804 0)
(0.995951 0.00186076 0)
(0.772381 0.0004258 0)
(0.294982 6.20178e-05 0)
(0.301402 0.000124725 0)
(0.779772 0.000412632 0)
(0.998927 0.000104776 0)
(1.05051 -0.00135396 0)
(1.05509 -0.00249327 0)
(1.05249 -0.00333192 0)
(1.0491 -0.00319953 0)
(1.04572 -0.00214357 0)
(1.04264 -0.000133306 0)
(1.04014 0.00260663 0)
(1.03921 0.00554287 0)
(1.0397 0.00746805 0)
(1.04141 0.00838595 0)
(1.04396 0.00839013 0)
(1.04653 0.00742018 0)
(1.04859 0.00567835 0)
(1.04342 0.0036961 0)
(0.990804 0.0014702 0)
(0.769804 0.000397078 0)
(0.294058 6.81181e-05 0)
(0.302672 0.000266515 0)
(0.780316 0.000633307 0)
(0.997536 0.000954156 0)
(1.0479 0.000218238 0)
(1.05308 -0.0003596 0)
(1.05146 -0.000893196 0)
(1.04899 -0.000723216 0)
(1.04628 9.79252e-05 0)
(1.04356 0.00170384 0)
(1.04116 0.00386517 0)
(1.03988 0.00618639 0)
(1.03998 0.00753934 0)
(1.04082 0.00775789 0)
(1.04212 0.00733335 0)
(1.04364 0.00617275 0)
(1.04457 0.0045445 0)
(1.03866 0.00284424 0)
(0.986652 0.00115389 0)
(0.767652 0.000310114 0)
(0.293199 6.22876e-05 0)
(0.304421 0.000235962 0)
(0.781851 0.000791686 0)
(0.997692 0.00121674 0)
(1.04737 0.00120083 0)
(1.05266 0.0010802 0)
(1.05174 0.00112091 0)
(1.05001 0.00155672 0)
(1.04787 0.00240312 0)
(1.04543 0.00376616 0)
(1.04298 0.00548312 0)
(1.04118 0.00708103 0)
(1.04042 0.00788799 0)
(1.04047 0.00766447 0)
(1.04105 0.00680835 0)
(1.04167 0.00557091 0)
(1.04176 0.00408799 0)
(1.03537 0.00265115 0)
(0.983665 0.00131298 0)
(0.765827 0.000499633 0)
(0.292362 0.000139796 0)
(0.306303 0.000221102 0)
(0.784192 0.000892845 0)
(0.998514 0.00147513 0)
(1.0479 0.00177415 0)
(1.05341 0.00218392 0)
(1.05281 0.00271763 0)
(1.05142 0.0035303 0)
(1.04954 0.00460028 0)
(1.0472 0.00593583 0)
(1.04456 0.00739507 0)
(1.04224 0.00838636 0)
(1.04062 0.00866704 0)
(1.03995 0.00801717 0)
(1.03977 0.00692654 0)
(1.03972 0.00558977 0)
(1.03927 0.0041771 0)
(1.03261 0.00286268 0)
(0.980989 0.00167133 0)
(0.763626 0.000763945 0)
(0.290955 0.000213399 0)
(0.308486 0.000296221 0)
(0.786993 0.00108968 0)
(1.00036 0.00197545 0)
(1.04924 0.00271087 0)
(1.0547 0.00351588 0)
(1.05417 0.00445846 0)
(1.05281 0.00559664 0)
(1.05092 0.00691147 0)
(1.04842 0.00832162 0)
(1.04537 0.00962182 0)
(1.04242 0.0101993 0)
(1.0401 0.0098413 0)
(1.03872 0.00889822 0)
(1.03785 0.00758102 0)
(1.03734 0.00608551 0)
(1.03658 0.00461894 0)
(1.02974 0.00326295 0)
(0.97804 0.0020352 0)
(0.760763 0.000973527 0)
(0.288995 0.000260766 0)
(0.31124 0.000398677 0)
(0.790511 0.00139847 0)
(1.00316 0.00260612 0)
(1.05159 0.00366294 0)
(1.05694 0.00485776 0)
(1.05632 0.0062115 0)
(1.0548 0.0077761 0)
(1.05264 0.00945425 0)
(1.04973 0.0110929 0)
(1.04603 0.0123824 0)
(1.04222 0.0127009 0)
(1.03914 0.0118588 0)
(1.03705 0.0104861 0)
(1.03566 0.00873456 0)
(1.03472 0.00697079 0)
(1.03366 0.00530182 0)
(1.02659 0.0037921 0)
(0.974676 0.00243561 0)
(0.757308 0.00118405 0)
(0.2866 0.000312742 0)
(0.315001 0.000528286 0)
(0.79538 0.00186036 0)
(1.00677 0.00349394 0)
(1.05453 0.0050814 0)
(1.0597 0.00668216 0)
(1.05895 0.00850518 0)
(1.05721 0.0104593 0)
(1.05467 0.0125045 0)
(1.05115 0.0144104 0)
(1.04659 0.0157488 0)
(1.04167 0.0158445 0)
(1.03766 0.0145706 0)
(1.03484 0.0126926 0)
(1.03291 0.0105284 0)
(1.03161 0.00842896 0)
(1.0303 0.00647715 0)
(1.02303 0.00470584 0)
(0.970701 0.00307422 0)
(0.752986 0.00150355 0)
(0.283592 0.000397008 0)
(0.319528 0.000672469 0)
(0.801203 0.00227283 0)
(1.01183 0.00429331 0)
(1.05902 0.00617322 0)
(1.06386 0.00834661 0)
(1.06276 0.0107943 0)
(1.06056 0.0134615 0)
(1.05738 0.0161633 0)
(1.053 0.0185745 0)
(1.04728 0.0201135 0)
(1.04109 0.0200012 0)
(1.03599 0.0182293 0)
(1.03233 0.0157099 0)
(1.02978 0.0129423 0)
(1.02804 0.010274 0)
(1.02638 0.00782968 0)
(1.01875 0.00565619 0)
(0.965887 0.00369715 0)
(0.747772 0.00183146 0)
(0.27994 0.000485832 0)
(0.326027 0.000887903 0)
(0.809503 0.00317842 0)
(1.01806 0.0059281 0)
(1.06426 0.00861093 0)
(1.06885 0.0112812 0)
(1.0674 0.0143191 0)
(1.06465 0.0175117 0)
(1.06061 0.0207727 0)
(1.05505 0.0236414 0)
(1.04781 0.0253638 0)
(1.03993 0.0250084 0)
(1.03339 0.0226742 0)
(1.02869 0.019464 0)
(1.02545 0.0160684 0)
(1.02327 0.012854 0)
(1.02134 0.00994438 0)
(1.01343 0.00732639 0)
(0.959923 0.00487073 0)
(0.741113 0.00238475 0)
(0.275214 0.000615197 0)
(0.333441 0.00119536 0)
(0.819184 0.00373195 0)
(1.02643 0.00709743 0)
(1.07163 0.0102985 0)
(1.07558 0.0140488 0)
(1.07342 0.0181614 0)
(1.06977 0.0225152 0)
(1.06457 0.0267608 0)
(1.05748 0.0303533 0)
(1.04836 0.0323333 0)
(1.03856 0.031627 0)
(1.03045 0.0285281 0)
(1.02463 0.024395 0)
(1.0206 0.020036 0)
(1.01789 0.0158597 0)
(1.01551 0.0120589 0)
(1.00702 0.00866874 0)
(0.952362 0.00563033 0)
(0.732756 0.00278979 0)
(0.26956 0.000745975 0)
(0.344868 0.00156244 0)
(0.832745 0.0056185 0)
(1.03706 0.0101243 0)
(1.08068 0.0143911 0)
(1.0842 0.0188045 0)
(1.08124 0.0237967 0)
(1.07643 0.0290182 0)
(1.0696 0.0342213 0)
(1.06046 0.0385216 0)
(1.04887 0.0407162 0)
(1.03654 0.039559 0)
(1.02637 0.0355291 0)
(1.01906 0.0303209 0)
(1.01396 0.02495 0)
(1.01048 0.0199248 0)
(1.00762 0.0154209 0)
(0.99872 0.011427 0)
(0.94344 0.00764899 0)
(0.722976 0.00373833 0)
(0.262363 0.000929559 0)
(0.358075 0.00222086 0)
(0.850246 0.00648939 0)
(1.05082 0.0124463 0)
(1.09265 0.0179083 0)
(1.09502 0.0244425 0)
(1.0908 0.0310414 0)
(1.08428 0.0379457 0)
(1.0753 0.0443374 0)
(1.06351 0.0493506 0)
(1.04896 0.0515743 0)
(1.03375 0.0496628 0)
(1.02133 0.0444044 0)
(1.01245 0.0378567 0)
(1.00629 0.0311131 0)
(1.00211 0.0246734 0)
(0.99869 0.018825 0)
(0.988769 0.0135059 0)
(0.931068 0.00872953 0)
(0.708946 0.00425224 0)
(0.253456 0.00113811 0)
(0.378368 0.00317994 0)
(0.872316 0.0105192 0)
(1.06913 0.0180281 0)
(1.10804 0.0251617 0)
(1.10917 0.0326936 0)
(1.10297 0.0409838 0)
(1.09414 0.0493787 0)
(1.08226 0.0570559 0)
(1.06718 0.0627667 0)
(1.04902 0.0648186 0)
(1.03041 0.0618987 0)
(1.01526 0.055153 0)
(1.00435 0.0469847 0)
(0.996632 0.0386712 0)
(0.991261 0.0308682 0)
(0.986922 0.0238115 0)
(0.97631 0.0176646 0)
(0.91807 0.0118187 0)
(0.695192 0.00581905 0)
(0.242951 0.00142264 0)
(0.406044 0.00444562 0)
(0.905948 0.0124502 0)
(1.09311 0.0236061 0)
(1.12844 0.0331047 0)
(1.12687 0.0443061 0)
(1.11792 0.0549857 0)
(1.10559 0.0652082 0)
(1.08976 0.0740784 0)
(1.07045 0.0800044 0)
(1.04794 0.0813858 0)
(1.02536 0.0769343 0)
(1.00715 0.0682777 0)
(0.99403 0.0582713 0)
(0.984695 0.0482041 0)
(0.978119 0.0386599 0)
(0.972802 0.0298888 0)
(0.960394 0.0215646 0)
(0.89795 0.0139546 0)
(0.671606 0.00658433 0)
(0.22847 0.00163876 0)
(0.44104 0.00881153 0)
(0.943565 0.0229464 0)
(1.12461 0.0359567 0)
(1.15389 0.0485979 0)
(1.14851 0.0619809 0)
(1.1353 0.0746235 0)
(1.11831 0.0865012 0)
(1.09774 0.095704 0)
(1.07351 0.101151 0)
(1.04622 0.10113 0)
(1.01942 0.0945967 0)
(0.997992 0.0836778 0)
(0.982455 0.071503 0)
(0.971235 0.059412 0)
(0.963091 0.0479339 0)
(0.956247 0.0374854 0)
(0.942334 0.0282998 0)
(0.878315 0.0191607 0)
(0.652184 0.00943448 0)
(0.215233 0.00196433 0)
(0.527148 0.0125424 0)
(1.01196 0.0312969 0)
(1.16577 0.0543918 0)
(1.1862 0.070327 0)
(1.17444 0.0885349 1.17761e-34)
(1.15477 0.102873 -6.73727e-35)
(1.13192 0.11494 0)
(1.10536 0.123614 0)
(1.07544 0.12766 0)
(1.04277 0.125301 0)
(1.01136 0.115954 0)
(0.986349 0.10237 0)
(0.968012 0.087966 0)
(0.954447 0.073965 0)
(0.944341 0.060914 0)
(0.935652 0.0484819 0)
(0.918415 0.0362529 0)
(0.846823 0.024678 0)
(0.606142 0.0113377 0)
(0.18753 0.00193047 0)
(0.584707 0.0281278 -3.81354e-21)
(1.08886 0.0571629 2.23236e-21)
(1.21278 0.0856282 0)
(1.22232 0.107891 2.98947e-21)
(1.20062 0.127532 -2.41763e-21)
(1.17419 0.140715 7.108e-35)
(1.14456 0.151763 0)
(1.11135 0.158997 5.59295e-21)
(1.07527 0.160661 -1.96451e-20)
(1.03661 0.15548 4.27937e-21)
(0.999966 0.143076 0)
(0.970736 0.126703 -1.34351e-20)
(0.948922 0.109976 -1.67467e-20)
(0.932304 0.093841 2.94439e-20)
(0.919295 0.0785715 -2.36267e-20)
(0.907394 0.0649391 0)
(0.885252 0.0516472 -9.05665e-21)
(0.803162 0.0353882 0)
(0.565777 0.0227629 -4.92262e-20)
(0.170504 0.00460481 5.86177e-20)
(0.602155 0.054895 -1.12689e-21)
(1.12952 0.105316 -3.60728e-20)
(1.2535 0.139248 1.13355e-20)
(1.25482 0.158857 1.10145e-20)
(1.22487 0.174661 -4.24078e-21)
(1.19152 0.186189 7.48259e-21)
(1.15475 0.195897 0)
(1.11511 0.201035 0)
(1.0727 0.200345 3.06509e-20)
(1.0277 0.192723 0)
(0.985086 0.177898 4.62575e-20)
(0.950578 0.159743 1.44131e-20)
(0.92406 0.141996 4.39875e-22)
(0.90301 0.125525 -3.28563e-20)
(0.885683 0.110565 0)
(0.869665 0.0964343 0)
(0.845227 0.0846509 -1.53248e-19)
(0.771648 0.0702252 3.87451e-19)
(0.552129 0.0450271 -2.29763e-19)
(0.172545 0.0165667 -2.75733e-19)
(0.601838 0.0902491 7.25723e-20)
(1.15588 0.168122 -2.04834e-20)
(1.28402 0.207303 -4.75616e-21)
(1.28105 0.220046 -2.21721e-20)
(1.2448 0.230612 1.35167e-20)
(1.2048 0.238667 -1.42988e-20)
(1.16164 0.245145 8.55885e-21)
(1.11614 0.246864 0)
(1.06766 0.243281 -6.32857e-20)
(1.01663 0.232802 6.78997e-20)
(0.968313 0.215554 -1.26118e-19)
(0.9289 0.196031 6.11853e-20)
(0.898273 0.177934 -4.45479e-20)
(0.873671 0.16182 9.79299e-20)
(0.853339 0.148018 0)
(0.835272 0.135875 -3.81505e-20)
(0.810706 0.122824 0)
(0.744665 0.110186 2.20879e-19)
(0.546453 0.0753787 -5.2413e-19)
(0.184583 0.0286028 3.29627e-19)
(0.585693 0.120879 -3.43896e-19)
(1.1669 0.230783 1.36711e-19)
(1.30232 0.278747 2.11207e-20)
(1.29831 0.285305 0)
(1.25783 0.291558 1.07768e-20)
(1.21264 0.295693 -1.07647e-20)
(1.16465 0.297647 -8.76697e-21)
(1.11394 0.295352 0)
(1.0601 0.288379 4.46043e-20)
(1.00385 0.274643 -4.67254e-20)
(0.950801 0.254771 1.09671e-19)
(0.907728 0.233675 0)
(0.874484 0.21496 -9.34248e-20)
(0.848119 0.198818 5.1813e-20)
(0.826778 0.185093 1.39196e-19)
(0.808476 0.174527 -1.22286e-19)
(0.785921 0.160802 2.03066e-19)
(0.725859 0.147559 -4.52632e-19)
(0.541643 0.105631 2.87938e-19)
(0.190034 0.03957 -3.63106e-19)
(0.564287 0.146619 2.13122e-19)
(1.16387 0.287796 -1.57011e-19)
(1.31066 0.347471 6.5691e-20)
(1.3071 0.350677 -8.81896e-20)
(1.26348 0.354295 5.73713e-20)
(1.21501 0.354251 -8.40076e-21)
(1.16365 0.351455 3.82774e-21)
(1.10873 0.345166 -3.20927e-20)
(1.05067 0.334416 -4.41865e-20)
(0.990214 0.317038 -9.91572e-20)
(0.933472 0.294147 -2.35821e-19)
(0.887919 0.27108 -7.83925e-20)
(0.853378 0.251301 2.86035e-21)
(0.826538 0.234654 -1.83209e-19)
(0.805154 0.220558 -6.17149e-21)
(0.787006 0.210324 1.78285e-19)
(0.766394 0.196855 -5.5272e-20)
(0.709832 0.182348 -3.26675e-20)
(0.534459 0.132212 0)
(0.189239 0.0498066 7.6705e-19)
(0.543681 0.170958 0)
(1.15518 0.341911 4.86401e-20)
(1.31114 0.412583 0)
(1.30846 0.413735 -1.19208e-20)
(1.26272 0.416048 -7.11651e-20)
(1.21267 0.41206 1.13948e-20)
(1.15909 0.40502 5.94079e-21)
(1.10104 0.394982 5.64105e-20)
(1.03991 0.380319 -2.59646e-20)
(0.976155 0.359282 4.46937e-20)
(0.916682 0.33326 1.26765e-19)
(0.869397 0.307777 1.73106e-19)
(0.833782 0.286232 -1.07366e-19)
(0.80631 0.268534 1.9814e-19)
(0.784869 0.253872 -1.58896e-19)
(0.766873 0.242996 0)
(0.74733 0.229766 -4.2279e-19)
(0.693223 0.212543 5.68556e-19)
(0.523721 0.156413 4.32611e-20)
(0.185874 0.057648 -8.04869e-19)
(0.525846 0.193389 -6.55567e-21)
(1.14284 0.393387 -1.32399e-19)
(1.30616 0.474395 -3.76279e-19)
(1.30422 0.473744 2.03413e-19)
(1.25708 0.474842 -4.05818e-20)
(1.20646 0.467447 1.995e-20)
(1.15129 0.457047 -4.0858e-22)
(1.09104 0.443703 -6.94613e-21)
(1.02748 0.425351 -9.24892e-20)
(0.960682 0.400722 1.24401e-21)
(0.898221 0.371167 -1.37102e-19)
(0.848806 0.342964 -1.83902e-19)
(0.81251 0.319714 1.20756e-19)
(0.78526 0.300716 -7.10285e-20)
(0.763982 0.28512 1.72707e-19)
(0.746442 0.273093 0)
(0.72787 0.259761 -2.61731e-19)
(0.675894 0.239534 3.87239e-19)
(0.51064 0.177272 7.47164e-19)
(0.180969 0.064659 -8.72337e-19)
(0.511907 0.214046 -6.39777e-19)
(1.12874 0.442275 3.22063e-19)
(1.2979 0.533689 2.4136e-19)
(1.29657 0.530984 -2.20398e-19)
(1.24832 0.530455 1.08876e-20)
(1.19739 0.519811 5.7254e-20)
(1.14078 0.506834 -5.96753e-21)
(1.07898 0.490658 -2.04341e-20)
(1.01349 0.469044 -5.59537e-20)
(0.944413 0.441104 9.77438e-20)
(0.880234 0.408308 1.30191e-19)
(0.830064 0.377182 2.88558e-19)
(0.792648 0.351204 0)
(0.764113 0.330317 5.41706e-21)
(0.742795 0.313443 -4.79913e-19)
(0.725603 0.300189 1.10264e-19)
(0.707169 0.28605 5.62107e-19)
(0.656916 0.263316 -1.63972e-19)
(0.496225 0.195303 3.57058e-19)
(0.175148 0.0705723 -2.85245e-20)
(0.50182 0.233989 7.42121e-21)
(1.11534 0.488472 2.99164e-19)
(1.28749 0.590168 1.84323e-19)
(1.28679 0.585916 -3.97474e-19)
(1.23773 0.583425 2.46887e-19)
(1.18644 0.569443 -7.30909e-20)
(1.12841 0.554232 2.91446e-21)
(1.06544 0.535484 4.67624e-20)
(0.998216 0.511051 1.00916e-19)
(0.926714 0.480089 -1.23905e-19)
(0.859305 0.44377 0)
(0.806034 0.409539 -1.13558e-19)
(0.76855 0.381567 1.30374e-19)
(0.741749 0.358663 1.74829e-19)
(0.720955 0.340381 -1.00376e-19)
(0.704456 0.325254 -2.53035e-19)
(0.687192 0.310437 -7.69543e-20)
(0.63843 0.284958 -1.35058e-21)
(0.480855 0.211172 0)
(0.168369 0.0753437 0)
(0.494104 0.254423 -3.17566e-19)
(1.10169 0.53158 0)
(1.27524 0.642546 2.12597e-19)
(1.27518 0.638056 -9.89112e-20)
(1.22589 0.633822 -2.57254e-19)
(1.17432 0.616746 7.1086e-20)
(1.11505 0.599468 -3.17196e-21)
(1.05116 0.578244 -2.3692e-20)
(0.982364 0.551336 6.39929e-20)
(0.909081 0.517647 -4.98757e-20)
(0.840725 0.478461 7.29224e-20)
(0.788313 0.441134 3.5471e-19)
(0.749043 0.409699 1.33347e-20)
(0.719453 0.384567 -1.78794e-19)
(0.698606 0.363678 3.44974e-19)
(0.682524 0.34778 4.48249e-21)
(0.66514 0.331317 8.23324e-20)
(0.618111 0.303297 -4.02625e-19)
(0.464569 0.224201 4.11558e-19)
(0.160712 0.0789828 -4.87184e-19)
(0.488886 0.275309 5.29125e-23)
(1.08886 0.572135 0)
(1.26166 0.691011 0)
(1.26233 0.68681 9.1157e-20)
(1.21318 0.681238 1.02039e-19)
(1.16141 0.661665 -5.83585e-20)
(1.10132 0.64253 3.04221e-20)
(1.03669 0.618991 0)
(0.96654 0.589982 -1.03362e-19)
(0.891409 0.554046 1.80537e-19)
(0.819705 0.511682 2.20831e-19)
(0.762142 0.470838 -1.33652e-19)
(0.722997 0.436966 -1.67546e-19)
(0.696057 0.408705 3.96265e-19)
(0.675616 0.387355 -1.22117e-19)
(0.659914 0.368089 -1.48243e-19)
(0.643369 0.35012 -9.09365e-20)
(0.596653 0.320045 -4.37411e-19)
(0.447077 0.234932 6.06058e-20)
(0.151968 0.0814522 5.29641e-19)
(0.4853 0.294339 -1.27293e-19)
(1.07657 0.610053 -1.9789e-19)
(1.24726 0.735865 2.3831e-20)
(1.24865 0.732145 3.4981e-22)
(1.19976 0.725499 3.22496e-20)
(1.14796 0.704023 -1.60501e-19)
(1.08739 0.68333 0)
(1.02214 0.6578 1.74108e-20)
(0.950561 0.627053 -1.3729e-20)
(0.873168 0.588933 2.83893e-19)
(0.79922 0.544027 -5.62737e-20)
(0.742789 0.501138 6.12961e-20)
(0.701226 0.463599 0)
(0.671436 0.432694 -2.1636e-19)
(0.651036 0.405566 2.70127e-19)
(0.636473 0.386203 0)
(0.621179 0.3671 -1.99843e-19)
(0.576362 0.333078 5.84162e-19)
(0.428672 0.243203 7.03862e-20)
(0.142679 0.0824289 -6.57923e-19)
(0.482419 0.311619 -2.83237e-19)
(1.06469 0.645612 3.60717e-19)
(1.23287 0.777522 0)
(1.23474 0.774331 2.28142e-19)
(1.18601 0.766683 0)
(1.13416 0.743708 1.48445e-19)
(1.07339 0.72173 0)
(1.00766 0.694578 0)
(0.935029 0.662384 -3.49518e-20)
(0.85643 0.6227 -2.76375e-19)
(0.780858 0.576292 -4.09963e-19)
(0.719435 0.528752 7.74419e-20)
(0.676122 0.487707 2.89788e-19)
(0.646475 0.453107 2.44029e-19)
(0.626599 0.427036 -8.67619e-19)
(0.611379 0.403134 -3.59098e-19)
(0.594821 0.379546 2.08642e-19)
(0.550293 0.344206 0)
(0.408961 0.249052 6.09543e-19)
(0.132131 0.0822371 -7.15291e-19)
(0.479697 0.327811 3.14627e-19)
(1.05324 0.679214 -3.96842e-19)
(1.21856 0.816233 0)
(1.22069 0.813726 -9.55245e-21)
(1.17215 0.80507 -9.37549e-20)
(1.12033 0.780839 0)
(1.0595 0.757734 -1.07795e-20)
(0.993422 0.729274 2.14835e-20)
(0.919869 0.695995 -4.54455e-20)
(0.839192 0.65516 2.75908e-20)
(0.759342 0.605445 0)
(0.695661 0.55705 3.08955e-19)
(0.65062 0.513649 3.84537e-21)
(0.618931 0.474777 1.32679e-19)
(0.597587 0.441073 1.60003e-19)
(0.585336 0.41492 0)
(0.573109 0.392406 -3.54801e-19)
(0.529975 0.353161 6.95893e-19)
(0.388392 0.252291 -7.45469e-19)
(0.121244 0.0805043 1.5585e-18)
(0.476897 0.34329 0)
(1.04231 0.710924 0)
(1.20466 0.852316 -2.15013e-19)
(1.20683 0.850481 0)
(1.15845 0.840831 0)
(1.10668 0.815523 2.19339e-19)
(1.04591 0.791442 -1.43922e-20)
(0.979544 0.761967 1.6372e-20)
(0.905131 0.727913 -3.89885e-21)
(0.822686 0.686064 0)
(0.741246 0.636757 -6.55539e-20)
(0.674676 0.585691 -2.56115e-19)
(0.626211 0.537727 -3.21778e-19)
(0.595051 0.496031 -1.33994e-19)
(0.574057 0.459796 1.76823e-19)
(0.558162 0.430516 -4.20487e-19)
(0.541672 0.402569 7.70391e-19)
(0.499411 0.357831 1.04682e-20)
(0.365845 0.252926 -7.21789e-19)
(0.109343 0.0771341 -1.07219e-19)
(0.474014 0.35806 0)
(1.0318 0.740795 -3.07535e-19)
(1.19094 0.885952 2.41658e-19)
(1.19316 0.884839 0)
(1.14504 0.8742 0)
(1.09342 0.847964 -4.86477e-19)
(1.03278 0.822982 0)
(0.966252 0.792678 0)
(0.891229 0.758116 -7.69088e-20)
(0.807688 0.716166 5.21349e-20)
(0.723156 0.66583 -5.22752e-19)
(0.651612 0.612532 0)
(0.597851 0.563208 -3.4865e-19)
(0.557444 0.514667 1.23092e-20)
(0.535813 0.473056 -5.6436e-19)
(0.526352 0.439395 2.28153e-19)
(0.518915 0.403589 5.23778e-21)
(0.477779 0.358672 -8.30377e-19)
(0.344644 0.249925 3.94784e-19)
(0.0997081 0.0729303 1.14709e-19)
(0.471029 0.372041 0)
(1.02168 0.768707 -3.65166e-19)
(1.17767 0.917296 2.55893e-19)
(1.17986 0.916799 5.35006e-19)
(1.13199 0.905231 1.07843e-19)
(1.08058 0.878216 -7.53459e-20)
(1.02018 0.852463 4.57072e-20)
(0.953628 0.82156 -7.50988e-20)
(0.878154 0.786786 8.22696e-20)
(0.792953 0.744857 3.19752e-19)
(0.704883 0.693714 4.33557e-19)
(0.630499 0.6406 8.32395e-20)
(0.575873 0.587832 5.06725e-19)
(0.540391 0.539454 3.29247e-19)
(0.512839 0.494228 4.0722e-19)
(0.496334 0.443969 -2.56227e-19)
(0.480285 0.411729 -3.07376e-19)
(0.444376 0.359028 3.6265e-19)
(0.319033 0.245077 -2.17408e-19)
(0.0912269 0.0669084 3.76978e-19)
(0.46795 0.385167 4.95552e-19)
(1.0118 0.794743 5.7907e-19)
(1.16461 0.946458 1.39869e-19)
(1.16693 0.946578 1.56117e-20)
(1.11938 0.934121 -3.75054e-19)
(1.06829 0.906414 1.40876e-19)
(1.00822 0.879985 -5.26467e-20)
(0.941728 0.848632 -2.16916e-20)
(0.865824 0.813705 -7.35173e-20)
(0.779206 0.772014 -3.56874e-19)
(0.689512 0.72149 2.59582e-20)
(0.609939 0.666753 0)
(0.546559 0.612346 0)
(0.495205 0.558249 -1.66951e-19)
(0.465929 0.49753 -6.67598e-19)
(0.452772 0.456285 5.55499e-19)
(0.452136 0.402387 3.42992e-19)
(0.421679 0.342719 0)
(0.305663 0.225008 7.01905e-19)
(0.0850798 0.0533534 -4.12871e-19)
(0.464741 0.397427 -2.64353e-19)
(1.00222 0.818967 2.22958e-19)
(1.15205 0.973586 -3.1417e-19)
(1.1544 0.97416 -3.37219e-19)
(1.10715 0.960866 -1.48707e-19)
(1.05648 0.932592 3.30793e-20)
(0.996808 0.905603 0)
(0.930513 0.873919 1.13604e-19)
(0.854417 0.839199 1.34268e-20)
(0.767056 0.797927 0)
(0.673838 0.749039 0)
(0.58988 0.69664 5.78596e-20)
(0.522446 0.644447 8.88216e-20)
(0.476592 0.584704 -1.79751e-19)
(0.440671 0.532708 4.83558e-19)
(0.414841 0.465172 -6.0961e-19)
(0.400072 0.402583 -7.41621e-19)
(0.385007 0.325987 6.63529e-19)
(0.308089 0.220843 -2.54087e-19)
(0.14814 0.111701 1.43291e-19)
(0.461288 0.409179 3.04786e-19)
(0.992833 0.841457 0)
(1.13975 0.998773 0)
(1.14234 0.999794 -1.137e-19)
(1.09545 0.985717 9.19922e-20)
(1.04523 0.95688 -2.0327e-20)
(0.986019 0.929397 -2.01685e-19)
(0.919994 0.897562 -1.89153e-19)
(0.843778 0.863018 8.20561e-20)
(0.755222 0.82296 -2.86777e-20)
(0.659835 0.774934 6.86971e-20)
(0.572745 0.722051 -4.75727e-19)
(0.498764 0.666153 -5.21899e-19)
(0.431349 0.610854 -9.551e-20)
(0.381341 0.546024 0)
(0.355857 0.478299 -1.43838e-20)
(0.348298 0.378462 4.02353e-19)
(0.330858 0.24076 -7.05283e-19)
(0.311588 0.0739803 5.20842e-19)
(0.10011 -0.0554741 4.20738e-19)
(0.45784 0.420161 -6.58957e-19)
(0.98373 0.862437 -2.80308e-19)
(1.12789 1.02233 4.80737e-21)
(1.13055 1.02368 1.45197e-19)
(1.08396 1.00891 0)
(1.03424 0.979688 4.28591e-19)
(0.97556 0.9519 2.50341e-19)
(0.909978 0.92009 -4.35054e-20)
(0.833837 0.886094 -2.90866e-20)
(0.744455 0.847348 -2.69621e-20)
(0.646496 0.801514 2.50439e-20)
(0.553735 0.752428 4.20422e-19)
(0.474025 0.701185 5.10472e-19)
(0.414579 0.643175 9.16908e-20)
(0.35812 0.586092 5.05481e-19)
(0.303731 0.497776 0)
(0.214432 0.395438 0)
(0.0903865 0.368837 5.1809e-19)
(-0.0368665 0.637406 -3.02949e-20)
(-0.00486891 1.43642 -6.68062e-19)
(0.454393 0.430236 3.55691e-19)
(0.974735 0.88193 8.36312e-19)
(1.11625 1.04437 -1.24817e-18)
(1.11917 1.0462 7.50517e-19)
(1.0729 1.03091 -8.74889e-20)
(1.02367 1.00139 5.62019e-19)
(0.965532 0.973461 0)
(0.900322 0.941928 2.01107e-19)
(0.824303 0.908905 0)
(0.734423 0.871625 2.59473e-19)
(0.634889 0.827968 -3.89345e-20)
(0.538998 0.780669 4.36555e-20)
(0.452891 0.730823 5.61458e-19)
(0.363577 0.684188 -2.06933e-19)
(0.28423 0.615882 -2.68002e-19)
(0.205174 0.567371 0)
(0.116941 0.647023 0)
(0.0604719 1.16272 0)
(0.0935936 2.3782 -2.92995e-19)
(0.123964 2.86932 -1.80844e-19)
(0.450929 0.439548 0)
(0.966066 0.900187 0)
(1.10508 1.06503 4.46263e-19)
(1.10805 1.06724 -6.25513e-19)
(1.06203 1.05151 4.29129e-19)
(1.01333 1.02189 -5.15026e-19)
(0.95579 0.993991 -2.90874e-20)
(0.891203 0.962964 2.26489e-20)
(0.815547 0.930863 7.51519e-21)
(0.725128 0.895801 -2.95217e-19)
(0.623851 0.855767 5.96533e-20)
(0.52417 0.813588 3.92874e-19)
(0.432414 0.773237 -5.537e-19)
(0.35044 0.716981 -6.45342e-19)
(0.285794 0.679917 2.26518e-19)
(0.221345 0.786579 0)
(0.170168 1.41789 3.2262e-19)
(0.173254 2.63495 3.72662e-19)
(0.173735 3.06826 -4.16689e-19)
(0.164034 3.21474 4.71419e-19)
(0.447403 0.448091 0)
(0.957534 0.917064 6.80212e-19)
(1.0942 1.08428 -1.15614e-19)
(1.09742 1.08704 7.87937e-19)
(1.0517 1.071 -4.50425e-19)
(1.00354 1.04129 0)
(0.946632 1.01352 0)
(0.882585 0.983077 0)
(0.807365 0.952492 -6.41113e-20)
(0.716654 0.920084 3.57097e-21)
(0.613101 0.883803 0)
(0.5086 0.84408 -3.8384e-19)
(0.41617 0.806071 0)
(0.320235 0.76994 4.58921e-19)
(0.240033 0.845765 -2.96431e-19)
(0.19004 1.38876 -2.47823e-19)
(0.208116 2.62331 -6.08585e-19)
(0.228126 3.11963 -3.01463e-19)
(0.215944 3.27685 -3.40982e-19)
(0.199335 3.32037 3.03947e-19)
(0.443887 0.45596 -2.30756e-19)
(0.949386 0.932961 1.37878e-20)
(1.08376 1.10236 -1.24591e-19)
(1.08703 1.10554 -6.30595e-19)
(1.04152 1.08924 0)
(0.993949 1.05963 0)
(0.937689 1.03209 0)
(0.874415 1.00246 -1.40228e-20)
(0.799884 0.97361 7.16399e-20)
(0.709655 0.943945 0)
(0.606004 0.911982 0)
(0.501649 0.880114 0)
(0.393654 0.851344 0)
(0.324192 0.849637 2.99886e-19)
(0.308392 1.16505 7.75069e-19)
(0.310641 2.25757 2.40967e-19)
(0.325757 3.07029 4.30808e-19)
(0.315244 3.2996 -2.63341e-19)
(0.258849 3.37369 9.77527e-20)
(0.222623 3.38774 0)
(0.440263 0.463366 2.337e-19)
(0.941094 0.94795 -1.46583e-18)
(1.07335 1.11966 -4.1159e-19)
(1.07693 1.12342 -1.00501e-19)
(1.03172 1.10695 1.15131e-19)
(0.984728 1.07738 -8.12794e-19)
(0.929222 1.05014 5.50417e-20)
(0.866806 1.02134 3.75579e-19)
(0.793269 0.993973 0)
(0.703165 0.967396 -1.70068e-20)
(0.598465 0.940408 1.5472e-20)
(0.489213 0.909802 0)
(0.402505 0.886177 0)
(0.349801 1.00193 -3.69664e-19)
(0.3405 1.75942 -8.2757e-21)
(0.331943 2.88472 -1.18762e-19)
(0.349489 3.29648 1.77058e-19)
(0.319108 3.41388 3.71999e-20)
(0.247636 3.44589 1.65377e-19)
(0.219163 3.4547 -8.36554e-20)
(0.436246 0.470721 4.49825e-19)
(0.932413 0.963456 1.40141e-18)
(1.0624 1.13737 5.06135e-19)
(1.0661 1.14147 0)
(1.02122 1.12472 0)
(0.97501 1.09521 6.2287e-19)
(0.920411 1.06818 -3.85243e-19)
(0.85906 1.04015 -3.4559e-19)
(0.786597 1.01477 -1.35481e-20)
(0.697371 0.991563 6.47467e-20)
(0.591872 0.969653 -2.96206e-19)
(0.481081 0.94643 0)
(0.402805 0.959213 0)
(0.378052 1.31178 -2.02671e-19)
(0.403648 2.33608 -2.58176e-19)
(0.447169 3.1894 0)
(0.478385 3.40671 1.4907e-19)
(0.405886 3.48176 2.47878e-19)
(0.321829 3.52517 -5.68885e-19)
(0.29168 3.55189 3.25321e-19)
(0.431607 0.478232 -8.5289e-19)
(0.922537 0.979183 -6.66588e-19)
(1.05041 1.15566 0)
(1.05461 1.16018 0)
(1.01029 1.14311 0)
(0.964889 1.1134 0)
(0.911381 1.08651 4.11406e-19)
(0.851318 1.05926 -4.49254e-19)
(0.780298 1.03578 0)
(0.692867 1.01624 -5.32028e-20)
(0.588249 0.999427 4.99464e-19)
(0.478914 0.984576 2.49627e-20)
(0.420267 1.05228 3.9385e-20)
(0.44371 1.62982 2.93257e-19)
(0.49037 2.80836 -5.58128e-20)
(0.524052 3.33805 0)
(0.507216 3.48563 -1.04709e-19)
(0.40756 3.57799 1.17667e-19)
(0.30092 3.66348 4.06705e-19)
(0.219516 3.65151 -3.53793e-19)
(0.426358 0.486021 4.04071e-19)
(0.911845 0.996164 -6.54172e-19)
(1.03722 1.17488 0)
(1.04176 1.17941 -1.61267e-19)
(0.997994 1.16177 6.11784e-19)
(0.953781 1.13186 0)
(0.901714 1.10493 0)
(0.843521 1.07832 8.41386e-19)
(0.774948 1.05632 1.22629e-20)
(0.688664 1.0408 -4.4679e-20)
(0.584375 1.0301 -2.17171e-19)
(0.478917 1.02888 1.6296e-19)
(0.444736 1.20526 0)
(0.50466 2.02626 -1.34884e-19)
(0.566759 3.08846 1.15371e-19)
(0.624721 3.44877 -6.99939e-20)
(0.62 3.57532 0)