/*--------------------------------*- C++ -*----------------------------------*\
| =========                 |                                                 |
| \\      /  F ield         | OpenFOAM: The Open Source CFD Toolbox           |
|  \\    /   O peration     | Version:  v2012                                 |
|   \\  /    A nd           | Website:  www.openfoam.com                      |
|    \\/     M anipulation  |                                                 |
\*---------------------------------------------------------------------------*/
FoamFile
{
    version     2.0;
    format      ascii;
    class       volScalarField;
    location    "65";
    object      p;
}
// * * * * * * * * * * * * * * * * * * * * * * * * * * * * * * * * * * * * * //

dimensions      [0 2 -2 0 0 0 0];


internalField   nonuniform List<scalar> 
2200
(
0.770375
0.748877
0.732972
0.717309
0.702703
0.690194
0.679851
0.671764
0.666085
0.663163
0.663694
0.667531
0.673888
0.68246
0.693149
0.70593
0.720728
0.736665
0.752713
0.77421
0.702796
0.699538
0.696616
0.692502
0.687047
0.68058
0.673974
0.668037
0.663556
0.661208
0.661712
0.665071
0.670275
0.676756
0.683754
0.690515
0.696179
0.700272
0.703119
0.706484
0.662856
0.663077
0.66514
0.66649
0.666887
0.666044
0.664076
0.661417
0.658897
0.657442
0.658026
0.660515
0.663836
0.667085
0.669435
0.670443
0.670181
0.669187
0.667549
0.667301
0.640352
0.641805
0.644404
0.646861
0.649313
0.651344
0.652515
0.65277
0.652429
0.652177
0.652867
0.654281
0.65551
0.655925
0.655258
0.653594
0.651443
0.649268
0.646664
0.645258
0.625981
0.627954
0.630776
0.633619
0.636488
0.639332
0.641807
0.643691
0.644951
0.645801
0.646589
0.647109
0.646906
0.645833
0.643997
0.64164
0.639096
0.63637
0.633576
0.631654
0.6186
0.620199
0.622407
0.624946
0.627626
0.630313
0.632929
0.635378
0.637437
0.639004
0.639929
0.640005
0.639218
0.637735
0.63587
0.633754
0.631444
0.629107
0.627009
0.625435
0.615134
0.616156
0.617431
0.619307
0.621466
0.623652
0.625874
0.628206
0.630474
0.632376
0.633482
0.633565
0.632847
0.631688
0.630326
0.628792
0.627113
0.625548
0.624439
0.623422
0.61243
0.613099
0.613737
0.61505
0.616682
0.618392
0.620178
0.622145
0.624273
0.626324
0.627649
0.62804
0.627778
0.627204
0.626465
0.62555
0.624518
0.623607
0.623167
0.62249
0.609127
0.609572
0.609974
0.610982
0.612262
0.613671
0.615207
0.616926
0.618845
0.620911
0.622528
0.623397
0.623735
0.623745
0.623511
0.623077
0.622528
0.622016
0.621835
0.62137
0.60501
0.605306
0.605668
0.606547
0.607675
0.608972
0.610442
0.612105
0.61399
0.616119
0.61811
0.619545
0.620412
0.620861
0.621001
0.620911
0.620649
0.620345
0.620228
0.619902
0.600207
0.600408
0.600784
0.601627
0.602741
0.60408
0.605647
0.607448
0.6095
0.611866
0.614281
0.616233
0.617553
0.61836
0.618771
0.618913
0.618838
0.61869
0.618595
0.618356
0.594916
0.59506
0.595435
0.596256
0.597418
0.598879
0.600634
0.602687
0.605066
0.607862
0.610825
0.613297
0.615032
0.61615
0.616811
0.617144
0.617279
0.617277
0.617216
0.617023
0.589194
0.589304
0.589688
0.590518
0.591759
0.593379
0.595373
0.597768
0.600626
0.603995
0.607605
0.61066
0.612838
0.614297
0.615241
0.615824
0.616171
0.616308
0.616293
0.616121
0.583033
0.583099
0.583486
0.584349
0.585705
0.587515
0.58979
0.592583
0.596013
0.600141
0.604546
0.608258
0.610949
0.612852
0.614182
0.615074
0.615667
0.615954
0.615979
0.615814
0.576329
0.576365
0.576792
0.577713
0.579231
0.581274
0.583866
0.587136
0.591235
0.596239
0.601567
0.606106
0.609466
0.611925
0.613724
0.614997
0.61585
0.616291
0.616363
0.616199
0.56903
0.568994
0.569426
0.570443
0.57216
0.574452
0.577406
0.581205
0.586055
0.592057
0.598557
0.604157
0.608381
0.611556
0.613932
0.615648
0.616801
0.617409
0.617531
0.617361
0.560766
0.560762
0.561201
0.562309
0.564285
0.566908
0.570347
0.574825
0.580606
0.587848
0.595702
0.602526
0.607817
0.61182
0.61485
0.617078
0.618575
0.619359
0.619538
0.619357
0.551402
0.551421
0.55188
0.553146
0.55542
0.558488
0.562561
0.567881
0.574761
0.58345
0.59298
0.601337
0.60782
0.612797
0.616602
0.619388
0.621287
0.622261
0.622491
0.62229
0.540527
0.540501
0.541065
0.542552
0.545186
0.548831
0.553722
0.560127
0.568415
0.578883
0.590424
0.600518
0.608424
0.614541
0.619184
0.622652
0.624987
0.626147
0.626426
0.626202
0.5276
0.52753
0.52821
0.530069
0.533285
0.537737
0.543713
0.551538
0.561651
0.574349
0.588187
0.600345
0.609815
0.617159
0.622784
0.626967
0.62978
0.631134
0.631445
0.631191
0.512384
0.512283
0.513055
0.515261
0.519195
0.524719
0.532147
0.541852
0.5543
0.569742
0.586318
0.600712
0.611918
0.62064
0.627331
0.632371
0.63569
0.637216
0.637544
0.637257
0.493761
0.493682
0.494706
0.497501
0.502446
0.509441
0.518859
0.531093
0.546547
0.565245
0.584955
0.601839
0.614981
0.625151
0.633027
0.638915
0.642714
0.644398
0.644714
0.644396
0.470832
0.470679
0.471999
0.475625
0.48209
0.491252
0.503411
0.518927
0.538042
0.560622
0.583905
0.603658
0.61886
0.630636
0.639751
0.646542
0.65081
0.652597
0.652859
0.652514
0.441316
0.441347
0.443449
0.448512
0.457262
0.469552
0.485549
0.505371
0.528994
0.556111
0.583401
0.606138
0.623544
0.637033
0.64748
0.655157
0.659775
0.661622
0.661799
0.661432
0.402275
0.402522
0.406082
0.414106
0.426938
0.444226
0.465556
0.490806
0.519786
0.552019
0.583667
0.609619
0.629335
0.644505
0.656185
0.664607
0.669441
0.671203
0.671266
0.670896
0.350434
0.350868
0.357921
0.371235
0.390588
0.415127
0.443509
0.475407
0.51058
0.548507
0.584746
0.613943
0.635914
0.652806
0.665707
0.674684
0.679358
0.680752
0.680662
0.680359
0.282502
0.285266
0.300464
0.322098
0.350369
0.383813
0.420367
0.459754
0.501839
0.54608
0.587456
0.620313
0.645117
0.664034
0.678222
0.687694
0.692055
0.692891
0.6928
0.692594
0.205199
0.214872
0.240286
0.271688
0.310158
0.352775
0.397596
0.444749
0.494131
0.545059
0.592016
0.629279
0.657093
0.678144
0.693867
0.703666
0.707598
0.707919
0.707946
0.707833
0.136375
0.15106
0.182849
0.223317
0.271486
0.323001
0.375953
0.430824
0.487418
0.545088
0.597683
0.638903
0.669408
0.692522
0.709238
0.719141
0.722797
0.722847
0.72298
0.722948
0.0839645
0.0973504
0.13406
0.180647
0.23627
0.295404
0.355778
0.41794
0.481497
0.545592
0.603453
0.648399
0.681789
0.706654
0.724517
0.734917
0.738285
0.738504
0.738838
0.738793
0.0405775
0.0532084
0.0938232
0.144365
0.205443
0.270541
0.337386
0.406079
0.475904
0.545788
0.608664
0.657556
0.693574
0.72032
0.739486
0.750306
0.754321
0.754993
0.75502
0.755081
0.0037173
0.0164767
0.0597592
0.113162
0.178613
0.248597
0.3209
0.395148
0.470542
0.546128
0.614237
0.666738
0.705042
0.733457
0.753974
0.765496
0.769731
0.770468
0.770506
0.770571
-0.0284784
-0.0155023
0.0299933
0.086001
0.155086
0.22905
0.30595
0.385125
0.465816
0.546965
0.619734
0.675241
0.715889
0.745899
0.767596
0.779445
0.784055
0.784866
0.784939
0.784984
-0.0568877
-0.0439911
0.00318764
0.0616221
0.133895
0.211359
0.292363
0.376025
0.461547
0.547467
0.62426
0.683001
0.725878
0.757075
0.779547
0.79209
0.796913
0.797871
0.797941
0.797975
-0.0828322
-0.069913
-0.0214504
0.0393441
0.114467
0.195039
0.279697
0.367285
0.45697
0.547181
0.628143
0.690087
0.734766
0.767286
0.790123
0.803125
0.808328
0.80939
0.809489
0.809503
-0.106761
-0.0936915
-0.0444837
0.0185739
0.0962157
0.179593
0.267457
0.358422
0.451856
0.546372
0.631551
0.696386
0.742792
0.776292
0.799521
0.813063
0.81835
0.819539
0.819635
0.819622
-0.129338
-0.115938
-0.0660552
-0.000992492
0.078798
0.164627
0.255272
0.349274
0.446262
0.544878
0.634037
0.701866
0.750114
0.784718
0.808178
0.821782
0.827223
0.828439
0.828532
0.828498
-0.150595
-0.136999
-0.086454
-0.019725
0.0618623
0.149868
0.243026
0.339843
0.440128
0.542521
0.635703
0.706781
0.757026
0.792434
0.816199
0.82966
0.834945
0.8362
0.836271
0.836202
-0.170743
-0.157138
-0.105893
-0.037796
0.0453133
0.135259
0.230696
0.330107
0.433424
0.539383
0.636598
0.711069
0.763501
0.8001
0.823817
0.836657
0.841855
0.842944
0.842996
0.842898
-0.190156
-0.176296
-0.124557
-0.0553372
0.0290849
0.120766
0.218269
0.320029
0.42607
0.535338
0.63658
0.714769
0.769928
0.807655
0.831219
0.843474
0.847945
0.848853
0.848831
0.848767
-0.209227
-0.194757
-0.142593
-0.0723769
0.0132032
0.10641
0.20572
0.30954
0.418021
0.530426
0.635738
0.717876
0.776254
0.815771
0.839133
0.850165
0.853647
0.854004
0.854034
0.854033
-0.227851
-0.212645
-0.160098
-0.0889597
-0.00235983
0.0921561
0.193012
0.29864
0.409353
0.524696
0.633873
0.720271
0.782481
0.824408
0.84807
0.857856
0.859176
0.858782
0.858587
0.858427
-0.246026
-0.230144
-0.177138
-0.105108
-0.0176123
0.0780141
0.180173
0.28739
0.400144
0.518158
0.630943
0.721851
0.788355
0.833846
0.858907
0.867077
0.865711
0.86395
0.863711
0.864706
-0.263561
-0.247184
-0.193703
-0.120842
-0.0325635
0.0639963
0.167256
0.275878
0.390485
0.510858
0.626854
0.722324
0.793809
0.843868
0.871893
0.879611
0.875548
0.868623
0.863847
0.862954
-0.280518
-0.263756
-0.209766
-0.136138
-0.0471794
0.0501701
0.15436
0.2642
0.380416
0.502804
0.62162
0.721473
0.798184
0.854236
0.887204
0.896596
0.89235
0.881663
0.88187
0.886024
-0.296825
-0.279725
-0.225255
-0.150955
-0.0614055
0.0366077
0.141571
0.252425
0.369987
0.494101
0.615266
0.718936
0.80116
0.863875
0.903769
0.918224
0.91381
0.884546
0.846838
0.814054
-0.312491
-0.295138
-0.240202
-0.165339
-0.0753144
0.0232162
0.128762
0.240383
0.358983
0.484509
0.607572
0.714389
0.801595
0.871904
0.920996
0.943553
0.952759
0.927085
0.944613
1.0065
-0.327433
-0.309971
-0.254672
-0.179422
-0.0890764
0.00977556
0.115656
0.227725
0.346968
0.473464
0.597897
0.706946
0.798443
0.875293
0.93064
0.958048
0.959127
0.93093
0.886715
0.903902
-0.341659
-0.324253
-0.268634
-0.193142
-0.102612
-0.00362232
0.102363
0.214583
0.33407
0.461021
0.586198
0.696454
0.78951
0.869417
0.926304
0.954252
0.93384
0.87474
0.808588
0.795555
-0.355129
-0.337919
-0.282069
-0.206506
-0.11593
-0.016986
0.088887
0.200976
0.320311
0.447143
0.572305
0.682366
0.774437
0.850774
0.902607
0.9041
0.864345
0.78318
0.70654
0.681136
-0.367901
-0.351022
-0.295015
-0.219534
-0.129057
-0.0303349
0.0752273
0.186921
0.305717
0.43186
0.556164
0.664504
0.751776
0.816565
0.843681
0.826622
0.762416
0.65785
0.568571
0.544347
-0.380398
-0.363894
-0.307833
-0.232596
-0.142345
-0.0439765
0.0611184
0.17219
0.290112
0.415015
0.537505
0.642172
0.722245
0.770802
0.764109
0.726003
0.609657
0.484351
0.37499
0.345993
-0.393488
-0.37739
-0.321236
-0.246284
-0.156335
-0.0583758
0.0461662
0.156463
0.273241
0.396393
0.516039
0.615038
0.687819
0.710992
0.676688
0.58465
0.425565
0.270548
0.139227
0.110015
-0.407667
-0.39178
-0.335481
-0.26084
-0.171211
-0.0736548
0.0302901
0.139691
0.255103
0.376006
0.491739
0.58399
0.645935
0.639933
0.587078
0.433882
0.232212
0.0180989
-0.163119
-0.213031
-0.423079
-0.407308
-0.350694
-0.276265
-0.186934
-0.0897823
0.0135193
0.12192
0.235754
0.35394
0.464565
0.550443
0.597053
0.559179
0.470716
0.281061
0.0492275
-0.240049
-0.560975
-0.710476
-0.439771
-0.423898
-0.366916
-0.292676
-0.203585
-0.106825
-0.00421495
0.103074
0.21514
0.33021
0.43487
0.513932
0.542244
0.474007
0.335945
0.12998
-0.103663
-0.44713
-1.03186
-1.60256
-0.457865
-0.441842
-0.384315
-0.310109
-0.221171
-0.124785
-0.022887
0.0832397
0.193424
0.305226
0.40382
0.47452
0.483501
0.399167
0.206447
-0.0269027
-0.229014
-0.462684
-1.0141
-2.51676
-0.477352
-0.460985
-0.402887
-0.328731
-0.239881
-0.14386
-0.0427333
0.0621226
0.170267
0.278593
0.371057
0.431823
0.419898
0.340391
0.113049
-0.124043
-0.271626
-0.308601
-0.297267
-0.681938
-0.498194
-0.481756
-0.422941
-0.348793
-0.260087
-0.164558
-0.0643845
0.038974
0.144745
0.249011
0.335682
0.385712
0.357597
0.289988
0.0634739
-0.138041
-0.248556
-0.256557
-0.203573
-0.243558
-0.520254
-0.503697
-0.444313
-0.370418
-0.281916
-0.187001
-0.0879972
0.0135899
0.116627
0.216278
0.297766
0.337737
0.30294
0.235629
0.0311637
-0.128436
-0.210648
-0.218752
-0.26657
-0.270567
-0.543495
-0.527096
-0.467115
-0.393535
-0.305321
-0.211234
-0.113635
-0.0140687
0.0859101
0.18082
0.257276
0.287551
0.255416
0.174333
0.00299196
-0.119175
-0.189287
-0.166493
-0.186852
-0.188499
-0.567618
-0.550965
-0.490978
-0.418127
-0.330211
-0.237162
-0.141209
-0.0439184
0.0527037
0.142964
0.214409
0.234002
0.214335
0.106417
-0.0324716
-0.114471
-0.153166
-0.201588
-0.175676
-0.184336
-0.592577
-0.575527
-0.515993
-0.443924
-0.356297
-0.264666
-0.170567
-0.0757296
0.0171782
0.103086
0.170208
0.179337
0.171293
0.0456471
-0.0692376
-0.132915
-0.110074
-0.16984
-0.15054
-0.155513
-0.617173
-0.5999
-0.541805
-0.470675
-0.383325
-0.293489
-0.201408
-0.109192
-0.0204804
0.0614873
0.125784
0.127351
0.119511
-0.0053909
-0.0960895
-0.147119
-0.135159
-0.150305
-0.155645
-0.153857
-0.641217
-0.624075
-0.567934
-0.497585
-0.410856
-0.323309
-0.233354
-0.143898
-0.05972
0.0185511
0.081481
0.0793475
0.0620274
-0.0477735
-0.109255
-0.140629
-0.179625
-0.150866
-0.156648
-0.15101
-0.663468
-0.64707
-0.59297
-0.523856
-0.438705
-0.353584
-0.265893
-0.179346
-0.0997346
-0.0254397
0.0370747
0.0358393
0.00647601
-0.0827242
-0.122505
-0.115212
-0.188286
-0.131086
-0.146158
-0.138384
-0.683491
-0.668203
-0.616196
-0.548328
-0.466293
-0.383523
-0.298335
-0.214909
-0.139494
-0.0698994
-0.00785803
-0.00458555
-0.0387106
-0.101551
-0.129919
-0.0892969
-0.134906
-0.117664
-0.123811
-0.120653
-0.699497
-0.685834
-0.636484
-0.570779
-0.492663
-0.412216
-0.329974
-0.249877
-0.178143
-0.114144
-0.0532098
-0.0424372
-0.0701536
-0.102614
-0.119734
-0.0968783
-0.111123
-0.114967
-0.116003
-0.116217
-0.710812
-0.699302
-0.653284
-0.590125
-0.515979
-0.438631
-0.359707
-0.283253
-0.214818
-0.156827
-0.0975362
-0.0778684
-0.0935741
-0.0991971
-0.111455
-0.122803
-0.114756
-0.118227
-0.116581
-0.117574
-0.715902
-0.706812
-0.664983
-0.60542
-0.535381
-0.461753
-0.386721
-0.314179
-0.248836
-0.196437
-0.138535
-0.111701
-0.122337
-0.100062
-0.105315
-0.142538
-0.119544
-0.127048
-0.120153
-0.121388
-0.714935
-0.707977
-0.67052
-0.614857
-0.549169
-0.480048
-0.409463
-0.341139
-0.279262
-0.230848
-0.174934
-0.144422
-0.14595
-0.114869
-0.0975576
-0.121087
-0.107732
-0.128907
-0.126946
-0.129709
-0.706914
-0.699618
-0.667233
-0.617344
-0.55707
-0.492931
-0.427234
-0.363068
-0.304488
-0.258679
-0.205445
-0.174323
-0.161713
-0.119401
-0.0664351
-0.0594427
-0.0753128
-0.0880468
-0.092721
-0.0954835
-0.686269
-0.677902
-0.653717
-0.611242
-0.557261
-0.498819
-0.438403
-0.378121
-0.322274
-0.277714
-0.227825
-0.197357
-0.186061
-0.21149
-0.257695
-0.319775
-0.328958
-0.310829
-0.292202
-0.277637
-0.64351
-0.635608
-0.627044
-0.596939
-0.55116
-0.498778
-0.443449
-0.385966
-0.33084
-0.285674
-0.236949
-0.201643
-0.26897
-0.39055
-0.611595
-0.778925
-0.791185
-0.769456
-0.706691
-0.648116
-0.602564
-0.599727
-0.598597
-0.575286
-0.538715
-0.493141
-0.441834
-0.385956
-0.328782
-0.279391
-0.230371
-0.164078
-0.182526
-0.261798
-0.372223
-0.400804
-0.333368
-0.268273
-0.220366
-0.188223
-0.579756
-0.581475
-0.571277
-0.557288
-0.528243
-0.486644
-0.436376
-0.380291
-0.317452
-0.254963
-0.196099
-0.0796074
0.0643072
0.282038
0.492549
0.6877
0.832648
0.919412
0.962981
1.00348
-0.548483
-0.548166
-0.544945
-0.543646
-0.519059
-0.480229
-0.430071
-0.37167
-0.302708
-0.223113
-0.140124
-0.00444907
0.211808
0.53606
0.853257
1.11593
1.29913
1.40945
1.46453
1.48173
-0.536503
-0.534598
-0.537353
-0.530368
-0.513051
-0.476916
-0.424914
-0.362332
-0.288482
-0.196998
-0.0958206
0.0310782
0.266777
0.587373
0.902552
1.16794
1.36329
1.47956
1.53115
1.54676
-0.524778
-0.523358
-0.526573
-0.518899
-0.51245
-0.476171
-0.422966
-0.357276
-0.278989
-0.181442
-0.0735096
0.030913
0.250068
0.527465
0.800802
1.03753
1.22157
1.33233
1.381
1.39454
-0.513788
-0.513947
-0.514505
-0.514193
-0.511322
-0.474147
-0.421825
-0.355796
-0.276382
-0.178988
-0.073917
0.00713996
0.191132
0.425566
0.648634
0.840954
0.994893
1.0882
1.12855
1.13866
-0.5033
-0.504233
-0.502514
-0.506217
-0.501319
-0.473601
-0.424557
-0.358266
-0.279819
-0.187134
-0.0878024
-0.0242642
0.120147
0.315895
0.493637
0.641241
0.759346
0.832122
0.863062
0.870822
-0.492349
-0.49174
-0.487422
-0.486992
-0.480248
-0.468475
-0.427773
-0.362644
-0.286764
-0.20122
-0.107597
-0.0544324
0.0519463
0.211936
0.351789
0.462934
0.550535
0.605427
0.628123
0.632789
-0.499668
-0.496308
-0.491037
-0.487763
-0.483955
-0.477668
-0.431456
-0.365634
-0.29201
-0.2152
-0.127677
-0.0800144
-0.0069249
0.121757
0.231015
0.314176
0.377928
0.418518
0.433972
0.438668
-0.530944
-0.528902
-0.528529
-0.531996
-0.533036
-0.512351
-0.442372
-0.368747
-0.293555
-0.224543
-0.144381
-0.0996188
-0.0525142
0.0490459
0.132669
0.194396
0.242421
0.27267
0.284607
0.288613
-0.579606
-0.583367
-0.593626
-0.60276
-0.595722
-0.547908
-0.452715
-0.370517
-0.289803
-0.227012
-0.155518
-0.113366
-0.0825232
-0.00300882
0.0591433
0.103949
0.141415
0.164407
0.173472
0.175832
-0.558376
-0.563668
-0.576854
-0.592069
-0.583814
-0.527839
-0.439946
-0.356003
-0.27755
-0.22019
-0.159018
-0.121093
-0.0979966
-0.0361185
0.00880533
0.0412276
0.0669213
0.0824125
0.0890676
0.0906922
-0.432488
-0.43939
-0.453367
-0.463207
-0.460391
-0.425818
-0.370835
-0.311669
-0.250239
-0.200703
-0.154178
-0.122184
-0.102009
-0.0557093
-0.023904
-0.00168634
0.0142684
0.0233391
0.0266518
0.0267958
-0.264837
-0.269449
-0.275982
-0.283322
-0.286133
-0.277537
-0.259655
-0.235398
-0.201919
-0.16988
-0.139964
-0.116703
-0.0984056
-0.0662728
-0.0451037
-0.0312163
-0.022303
-0.0182688
-0.0176372
-0.0184506
-0.116155
-0.118347
-0.122781
-0.130463
-0.139325
-0.146877
-0.152266
-0.153318
-0.144602
-0.132949
-0.117995
-0.104208
-0.0902757
-0.0705211
-0.0578869
-0.0501104
-0.0461842
-0.0455114
-0.0466748
-0.0479481
-0.0123313
-0.013524
-0.0165262
-0.0244187
-0.0380478
-0.0547667
-0.0713
-0.0853207
-0.0920714
-0.0957905
-0.0916097
-0.0856569
-0.0791631
-0.0688929
-0.0628478
-0.060259
-0.0600502
-0.0614793
-0.0633939
-0.0647748
0.0439474
0.0430481
0.0407578
0.0332154
0.0182005
-0.00174799
-0.0218133
-0.0398487
-0.0525954
-0.0637478
-0.0660897
-0.0654822
-0.0658745
-0.0623689
-0.0616698
-0.0629708
-0.0652909
-0.0680531
-0.0701931
-0.0715211
0.0670727
0.0664617
0.0646276
0.0580835
0.0444092
0.025313
0.00523157
-0.01354
-0.0279761
-0.0407659
-0.0454059
-0.0487978
-0.0527002
-0.053388
-0.056631
-0.0605281
-0.0642511
-0.0674921
-0.0695583
-0.0707586
0.0712554
0.0707949
0.0693472
0.0641819
0.0532163
0.0372442
0.0193318
0.0013072
-0.0132828
-0.0260774
-0.031072
-0.0362026
-0.0412877
-0.0447716
-0.0497994
-0.0546797
-0.0587482
-0.0618563
-0.0636526
-0.0646947
0.0662656
0.0659428
0.0648429
0.0609768
0.052739
0.0404719
0.0259366
0.0100465
-0.00356023
-0.0162303
-0.0215264
-0.0265057
-0.0318453
-0.0365976
-0.0421426
-0.0470056
-0.0507617
-0.0534497
-0.0548474
-0.0557392
0.0574548
0.057254
0.0564655
0.0536965
0.0477298
0.0386786
0.0276152
0.0147821
0.00338751
-0.00865866
-0.0144366
-0.0190569
-0.0240862
-0.028725
-0.0340258
-0.0384676
-0.0417845
-0.044075
-0.0450754
-0.0458108
0.0476036
0.0474912
0.0469328
0.0450107
0.0408161
0.0342955
0.0261155
0.0162435
0.00758205
-0.00294185
-0.00859815
-0.0126776
-0.0172484
-0.0214894
-0.0262455
-0.0301007
-0.032966
-0.0349099
-0.0356285
-0.0362266
0.0380553
0.0380098
0.0376252
0.0363462
0.0334647
0.0288885
0.022966
0.0154916
0.00923255
0.000767387
-0.00396252
-0.00728904
-0.011149
-0.0149649
-0.0191759
-0.022457
-0.0248469
-0.0264429
-0.0269335
-0.0274311
0.0293596
0.0293413
0.0290917
0.0282719
0.0263341
0.023176
0.0189909
0.0134325
0.00912937
0.00269219
-0.000668645
-0.00332398
-0.00650754
-0.00975866
-0.0132835
-0.0159107
-0.0178093
-0.0191092
-0.0195101
-0.019931
0.0215041
0.0215054
0.021323
0.0208211
0.0195564
0.0174463
0.0146039
0.0105249
0.00776235
0.00305474
0.00108547
-0.000723218
-0.0033122
-0.00593001
-0.00873916
-0.0107947
-0.012236
-0.0131991
-0.0134522
-0.0137908
0.0145003
0.0144959
0.0143835
0.0141097
0.0133484
0.0120486
0.0103128
0.00746263
0.00588347
0.00250895
0.00144318
0.00042974
-0.00140086
-0.00326236
-0.00542306
-0.00690278
-0.00785265
-0.00842339
-0.00860442
-0.00892182
0.0082192
0.00821183
0.00818386
0.0081053
0.00775807
0.00708962
0.00630009
0.00453273
0.00388135
0.0015886
0.00101806
0.000708432
-0.000504544
-0.0015411
-0.00306166
-0.00396076
-0.00445075
-0.00477111
-0.00475489
-0.00496549
0.00266107
0.00268045
0.00272317
0.00276731
0.0027199
0.00249333
0.00234708
0.00151059
0.00148785
0.000467918
0.000435525
0.000680378
-8.53142e-05
-0.000288178
-0.00129945
-0.0019147
-0.00245544
-0.00292412
-0.00267306
-0.00265449
-1.07683
-0.240996
0.0289118
0.303611
0.483005
0.636357
0.758696
0.883653
1.02262
1.10734
-0.10071
0.303991
0.318599
0.505619
0.627049
0.735984
0.829365
0.912848
0.939666
0.898301
0.272407
0.484715
0.51796
0.653519
0.737571
0.815835
0.88044
0.929011
0.93077
0.945247
0.499282
0.640562
0.674981
0.775163
0.831567
0.887971
0.9322
0.964229
0.973135
0.996953
0.675162
0.775221
0.804884
0.871172
0.915481
0.955679
0.987454
1.01158
1.02125
1.05294
0.817018
0.885042
0.915188
0.957412
0.993182
1.02295
1.04702
1.06773
1.08175
1.11012
0.935257
0.985384
1.01078
1.03844
1.06583
1.08943
1.10928
1.1285
1.14332
1.1699
1.03846
1.07524
1.09618
1.11668
1.13731
1.1566
1.17396
1.19206
1.20692
1.23061
1.13211
1.1611
1.17736
1.19255
1.20858
1.2246
1.24014
1.25703
1.27065
1.29298
1.22019
1.24059
1.2554
1.26853
1.28208
1.29583
1.30932
1.32391
1.33546
1.3551
1.30554
1.3213
1.33511
1.34691
1.35882
1.37045
1.38159
1.39326
1.40094
1.41773
1.39074
1.40327
1.41698
1.42873
1.43936
1.44915
1.45798
1.46624
1.4698
1.48103
1.47947
1.4903
1.50377
1.5133
1.52086
1.52815
1.53534
1.54181
1.54291
1.55026
1.57788
1.58249
1.59068
1.59541
1.59881
1.60328
1.60928
1.61693
1.62084
1.63072
1.69117
1.67806
1.67077
1.66505
1.66233
1.66367
1.66999
1.68236
1.69718
1.72685
1.81314
1.7571
1.72608
1.70888
1.70066
1.70059
1.70945
1.72907
1.76086
1.83013
)
;

boundaryField
{
    wall-4
    {
        type            zeroGradient;
    }
    pressure-outlet-7
    {
        type            fixedValue;
        value           uniform 0;
    }
    velocity-inlet-6
    {
        type            zeroGradient;
    }
    velocity-inlet-5
    {
        type            zeroGradient;
    }
    frontAndBackPlanes
    {
        type            empty;
    }
}


// ************************************************************************* //
