/*--------------------------------*- C++ -*----------------------------------*\
| =========                 |                                                 |
| \\      /  F ield         | OpenFOAM: The Open Source CFD Toolbox           |
|  \\    /   O peration     | Version:  v2012                                 |
|   \\  /    A nd           | Website:  www.openfoam.com                      |
|    \\/     M anipulation  |                                                 |
\*---------------------------------------------------------------------------*/
FoamFile
{
    version     2.0;
    format      ascii;
    class       volScalarField;
    location    "39";
    object      p;
}
// * * * * * * * * * * * * * * * * * * * * * * * * * * * * * * * * * * * * * //

dimensions      [0 2 -2 0 0 0 0];


internalField   nonuniform List<scalar> 
2200
(
0.803275
0.781774
0.765863
0.750191
0.735576
0.723044
0.712674
0.704544
0.698815
0.695802
0.696219
0.699979
0.706251
0.714766
0.725412
0.738148
0.752909
0.768779
0.784794
0.806299
0.735706
0.732446
0.72952
0.725398
0.719925
0.713441
0.70681
0.700827
0.696281
0.693818
0.694228
0.697471
0.702598
0.709013
0.71596
0.722682
0.728324
0.732442
0.735324
0.738663
0.695832
0.69605
0.698096
0.699424
0.699798
0.698926
0.696916
0.694216
0.691633
0.690093
0.690566
0.692934
0.696148
0.699324
0.701641
0.702651
0.702375
0.701321
0.699602
0.699361
0.673341
0.674789
0.677383
0.679836
0.682274
0.684281
0.685415
0.685617
0.685204
0.684861
0.685413
0.686688
0.687812
0.688136
0.687406
0.685698
0.683507
0.681281
0.678682
0.677268
0.659017
0.660986
0.663806
0.666642
0.669489
0.672299
0.674737
0.676561
0.677729
0.678444
0.679079
0.679456
0.679141
0.677967
0.676049
0.67363
0.671044
0.668304
0.665513
0.663584
0.651789
0.653387
0.655582
0.658092
0.660728
0.663358
0.665904
0.668271
0.670222
0.671624
0.672367
0.672284
0.671354
0.669765
0.667801
0.66562
0.663267
0.660916
0.65881
0.657232
0.648446
0.649471
0.650731
0.652578
0.6547
0.656839
0.658981
0.661204
0.663345
0.665086
0.665972
0.665842
0.664936
0.663638
0.662174
0.660544
0.658795
0.657181
0.656047
0.655032
0.645845
0.646512
0.647141
0.64844
0.650048
0.651715
0.653421
0.655275
0.657229
0.659058
0.660138
0.660269
0.659822
0.659082
0.658206
0.657165
0.656035
0.655055
0.654579
0.653907
0.642753
0.643195
0.643593
0.644588
0.645844
0.647202
0.648642
0.650209
0.651907
0.653676
0.654992
0.655595
0.655709
0.655525
0.655118
0.654543
0.65387
0.653271
0.653049
0.652591
0.638915
0.639215
0.639571
0.640439
0.641541
0.642792
0.644186
0.645712
0.647379
0.649178
0.650797
0.651899
0.652463
0.652646
0.652535
0.652223
0.651805
0.651389
0.65122
0.650905
0.634393
0.634595
0.634974
0.635813
0.636914
0.638222
0.639741
0.641445
0.64332
0.645375
0.647363
0.64885
0.649732
0.650124
0.65019
0.650054
0.649776
0.649464
0.649302
0.649077
0.629379
0.629515
0.629893
0.63075
0.631949
0.633426
0.63515
0.637101
0.63929
0.641733
0.64417
0.646055
0.647227
0.647841
0.648053
0.648041
0.64787
0.647664
0.647528
0.647365
0.62415
0.62424
0.624613
0.625449
0.626702
0.628318
0.630276
0.632572
0.635204
0.638182
0.641192
0.643569
0.645075
0.64593
0.646328
0.646414
0.646408
0.64634
0.646248
0.646121
0.61862
0.618674
0.619057
0.619902
0.621212
0.622948
0.625117
0.627831
0.631039
0.634751
0.638434
0.641276
0.643146
0.644311
0.645014
0.645395
0.645601
0.645659
0.645617
0.645501
0.612563
0.612586
0.612993
0.613884
0.615343
0.61726
0.619663
0.622686
0.626455
0.630937
0.63544
0.63897
0.641434
0.643141
0.644307
0.645038
0.645429
0.645608
0.645614
0.645505
0.605997
0.605913
0.606353
0.607333
0.608981
0.611132
0.613807
0.61717
0.621417
0.626668
0.632227
0.636865
0.640249
0.642684
0.64435
0.645377
0.645972
0.646274
0.64633
0.646238
0.598842
0.598836
0.599205
0.600232
0.602128
0.60459
0.607716
0.611664
0.616687
0.622952
0.629802
0.635691
0.640054
0.643133
0.645245
0.646641
0.647531
0.647976
0.648085
0.648
0.590752
0.590747
0.591175
0.592383
0.594595
0.597495
0.601303
0.606242
0.612485
0.620208
0.628559
0.635642
0.640849
0.644606
0.647273
0.649094
0.650248
0.650835
0.651003
0.650916
0.581412
0.581339
0.581889
0.583393
0.585927
0.589393
0.594057
0.600139
0.607926
0.617532
0.627712
0.636223
0.64252
0.647102
0.650419
0.652735
0.654198
0.65497
0.655206
0.655108
0.570326
0.570214
0.570837
0.572602
0.575632
0.579787
0.585364
0.592691
0.60215
0.613879
0.62636
0.636836
0.644687
0.650475
0.654677
0.657604
0.659496
0.66049
0.660795
0.660673
0.557118
0.556986
0.557683
0.559694
0.563251
0.568294
0.575152
0.584145
0.595696
0.609985
0.625189
0.637993
0.647582
0.654719
0.659952
0.663728
0.666194
0.667447
0.66783
0.667669
0.54061
0.540517
0.541471
0.543974
0.548447
0.55486
0.56357
0.574966
0.589404
0.606882
0.625109
0.640386
0.651833
0.66043
0.66681
0.671406
0.674429
0.675922
0.676356
0.676147
0.519857
0.519693
0.520989
0.524383
0.530304
0.538795
0.550212
0.564912
0.583042
0.604383
0.62613
0.644095
0.657539
0.667618
0.675112
0.680565
0.68414
0.685861
0.686342
0.68608
0.492553
0.49258
0.494667
0.499457
0.507675
0.519333
0.534536
0.553437
0.576015
0.601903
0.627723
0.648754
0.664418
0.676196
0.684997
0.691355
0.695455
0.697368
0.697865
0.697551
0.455798
0.456089
0.459683
0.4674
0.479539
0.496024
0.516407
0.540635
0.568516
0.599578
0.629871
0.654268
0.672383
0.685988
0.696204
0.703643
0.708327
0.710416
0.71091
0.710509
0.406307
0.406747
0.413837
0.426829
0.445426
0.469007
0.496307
0.527163
0.5613
0.598161
0.633275
0.661133
0.681703
0.697245
0.709007
0.717477
0.722604
0.724706
0.725053
0.724637
0.34035
0.343293
0.358632
0.380064
0.407597
0.4399
0.475295
0.513674
0.554826
0.598194
0.63871
0.670679
0.694469
0.712547
0.726215
0.736228
0.742195
0.744438
0.744603
0.744396
0.265116
0.27483
0.300445
0.331823
0.369456
0.410769
0.454309
0.500472
0.549032
0.599415
0.646124
0.683102
0.710695
0.731826
0.748174
0.760023
0.767014
0.76921
0.769249
0.769374
0.198122
0.213151
0.245224
0.285256
0.332341
0.38252
0.434045
0.487939
0.543801
0.601025
0.653645
0.695149
0.726308
0.750192
0.768367
0.781663
0.78945
0.792615
0.793218
0.793213
0.147285
0.160761
0.19816
0.244118
0.29839
0.355922
0.414859
0.476056
0.53886
0.602696
0.660832
0.70657
0.740632
0.766604
0.786456
0.801298
0.809585
0.81303
0.813615
0.813692
0.105393
0.117995
0.15897
0.20881
0.268495
0.331847
0.397178
0.464863
0.533968
0.603818
0.667249
0.716836
0.753436
0.781164
0.802092
0.817653
0.826566
0.830338
0.831046
0.831162
0.0693791
0.082222
0.125624
0.178309
0.242252
0.310274
0.380971
0.454255
0.529003
0.604649
0.673213
0.725967
0.764567
0.793544
0.815285
0.831061
0.84036
0.844447
0.845318
0.845425
0.0378568
0.0508561
0.0962501
0.151465
0.218903
0.290789
0.366032
0.444198
0.524099
0.604964
0.677474
0.733158
0.773616
0.803618
0.825674
0.84176
0.851574
0.855902
0.856962
0.857051
0.00962587
0.0226717
0.0697383
0.12726
0.19767
0.27284
0.351982
0.434338
0.518694
0.603937
0.680751
0.739283
0.781073
0.811844
0.83458
0.850842
0.86102
0.865624
0.866787
0.866853
-0.0161233
-0.00311975
0.045218
0.104945
0.177971
0.255981
0.338466
0.424473
0.512948
0.602795
0.683673
0.744364
0.787718
0.819385
0.842558
0.859019
0.869436
0.874098
0.875209
0.875111
-0.0402997
-0.0269519
0.0221656
0.0839562
0.159292
0.239832
0.325288
0.414635
0.506879
0.600658
0.684692
0.748673
0.793722
0.826114
0.849825
0.866401
0.876492
0.88123
0.882356
0.882189
-0.0629989
-0.0494906
0.000361461
0.0639639
0.141297
0.224124
0.312226
0.404483
0.49993
0.59734
0.685839
0.752876
0.799328
0.832725
0.856451
0.873042
0.883127
0.88768
0.888923
0.888811
-0.0844058
-0.0709405
-0.020392
0.044752
0.123782
0.208638
0.299057
0.393876
0.492416
0.593723
0.686177
0.755723
0.804765
0.839011
0.863094
0.879617
0.889541
0.894021
0.895116
0.895042
-0.105004
-0.0913359
-0.0402766
0.0261354
0.106599
0.19325
0.285759
0.383021
0.484555
0.58928
0.685304
0.758778
0.81004
0.845466
0.869963
0.886293
0.896013
0.90021
0.901262
0.901152
-0.125247
-0.110957
-0.0595087
0.00798768
0.0896742
0.177936
0.272386
0.371891
0.476021
0.583876
0.683897
0.761084
0.814998
0.852283
0.877284
0.893357
0.902484
0.9064
0.907195
0.907069
-0.145175
-0.130039
-0.0782323
-0.00976284
0.0729867
0.162696
0.258902
0.360394
0.466801
0.577599
0.681489
0.762464
0.819883
0.859429
0.885349
0.901035
0.909298
0.912353
0.912899
0.91273
-0.164654
-0.148771
-0.0965197
-0.0271086
0.0565776
0.147534
0.245247
0.348497
0.457059
0.570722
0.678197
0.76309
0.824302
0.866918
0.8945
0.909893
0.916563
0.918142
0.918155
0.918017
-0.183544
-0.167099
-0.114353
-0.0440489
0.0404576
0.132467
0.231462
0.336312
0.446921
0.563016
0.673218
0.762364
0.828007
0.874716
0.905025
0.920745
0.925394
0.923445
0.922732
0.923495
-0.201818
-0.184963
-0.131686
-0.0605503
0.0246755
0.117565
0.217656
0.323913
0.436237
0.55422
0.667197
0.760555
0.830866
0.882407
0.916898
0.934384
0.937607
0.931418
0.925961
0.92414
-0.219446
-0.202241
-0.148451
-0.0765751
0.0092832
0.102914
0.20391
0.311303
0.424996
0.544729
0.660257
0.756886
0.832022
0.889577
0.929904
0.951591
0.957662
0.945403
0.942915
0.947318
-0.236441
-0.218887
-0.164592
-0.092058
-0.00564371
0.0885953
0.1903
0.298566
0.413377
0.534626
0.652059
0.751549
0.831489
0.895041
0.942882
0.972078
0.984509
0.957719
0.914929
0.876226
-0.252732
-0.234898
-0.180139
-0.107062
-0.0202017
0.0744873
0.176682
0.285556
0.401214
0.523654
0.642559
0.744272
0.827768
0.897678
0.954459
0.994971
1.02215
1.01289
1.0298
1.08455
-0.268281
-0.250335
-0.195188
-0.121722
-0.0345692
0.0603675
0.162806
0.271996
0.388121
0.51129
0.631217
0.734163
0.820189
0.894689
0.956246
1.00049
1.02105
1.00766
0.97048
0.982516
-0.283054
-0.265157
-0.209694
-0.135991
-0.0486766
0.0463367
0.148815
0.258053
0.374255
0.49762
0.617898
0.721025
0.806895
0.881768
0.942903
0.985065
0.980496
0.932176
0.870799
0.859411
-0.297051
-0.279369
-0.223661
-0.149876
-0.0625277
0.0323961
0.134729
0.243756
0.359648
0.482658
0.602603
0.704692
0.787997
0.857407
0.911939
0.926727
0.895424
0.822388
0.749643
0.731081
-0.310302
-0.292955
-0.237099
-0.163398
-0.0761487
0.0185277
0.120538
0.229109
0.344338
0.466424
0.585107
0.684876
0.76242
0.819349
0.849391
0.840137
0.787974
0.688322
0.602125
0.582035
-0.323267
-0.306332
-0.250407
-0.176927
-0.089897
0.0044105
0.10596
0.21388
0.328127
0.448711
0.565215
0.661274
0.731674
0.772642
0.768537
0.735923
0.629665
0.509089
0.402886
0.377551
-0.336843
-0.32028
-0.264282
-0.191091
-0.104351
-0.010446
0.0905695
0.197706
0.310729
0.429301
0.542734
0.633686
0.696412
0.714271
0.680398
0.595775
0.44146
0.290218
0.162483
0.136306
-0.351561
-0.335232
-0.279054
-0.206127
-0.119694
-0.026177
0.0742679
0.180522
0.292126
0.40825
0.517783
0.60323
0.65484
0.645506
0.59173
0.444226
0.244479
0.0319701
-0.147825
-0.194871
-0.367519
-0.351254
-0.294775
-0.222059
-0.135901
-0.0427499
0.0570848
0.162353
0.272364
0.385666
0.490161
0.570109
0.606918
0.56613
0.478685
0.290232
0.0571194
-0.233474
-0.556864
-0.702431
-0.384803
-0.36847
-0.311567
-0.238969
-0.153022
-0.0602263
0.0389593
0.143143
0.251412
0.361616
0.460224
0.534144
0.553732
0.482023
0.345546
0.137408
-0.100324
-0.448299
-1.04101
-1.61603
-0.403473
-0.386935
-0.329491
-0.256917
-0.171075
-0.078593
0.019941
0.123
0.229458
0.336491
0.429189
0.495498
0.497246
0.407034
0.215937
-0.0217703
-0.229518
-0.470429
-1.03764
-2.57828
-0.423542
-0.406766
-0.348651
-0.276022
-0.190217
-0.0980484
-0.00020476
0.101647
0.206162
0.309905
0.39667
0.453732
0.436297
0.347933
0.120442
-0.123299
-0.275767
-0.317924
-0.314862
-0.70879
-0.444921
-0.428046
-0.369208
-0.296584
-0.210846
-0.119075
-0.0220752
0.0783614
0.180624
0.280478
0.361899
0.408782
0.37541
0.299208
0.0685854
-0.140048
-0.255171
-0.265366
-0.213991
-0.255632
-0.467529
-0.450692
-0.391162
-0.318652
-0.233025
-0.141788
-0.0458155
0.0529642
0.152591
0.24799
0.324815
0.361887
0.32143
0.247492
0.0350897
-0.132347
-0.216644
-0.224201
-0.271856
-0.277959
-0.491284
-0.474466
-0.414417
-0.342226
-0.256744
-0.166194
-0.0714436
0.0254518
0.122147
0.212989
0.285289
0.313205
0.274003
0.187063
0.00703502
-0.122878
-0.196425
-0.168305
-0.190598
-0.192401
-0.516007
-0.498981
-0.43889
-0.367199
-0.281829
-0.192197
-0.0988689
-0.00406848
0.0893931
0.175678
0.243362
0.261411
0.232114
0.119879
-0.0274087
-0.117643
-0.163947
-0.205313
-0.181858
-0.189836
-0.541286
-0.52392
-0.464416
-0.393385
-0.308071
-0.219623
-0.12789
-0.0353559
0.054536
0.136537
0.200254
0.208125
0.189833
0.0576685
-0.0660216
-0.133335
-0.120294
-0.179576
-0.1568
-0.162111
-0.566451
-0.548874
-0.490828
-0.420377
-0.335098
-0.248192
-0.158181
-0.0680428
0.0178399
0.0959073
0.157059
0.156967
0.139075
0.00442188
-0.0957003
-0.152116
-0.132021
-0.15613
-0.159014
-0.158906
-0.59093
-0.573567
-0.517264
-0.447443
-0.362599
-0.277521
-0.189306
-0.101677
-0.0201049
0.0541502
0.113751
0.108515
0.083339
-0.0408569
-0.112931
-0.149317
-0.174238
-0.158124
-0.163964
-0.160416
-0.613949
-0.597303
-0.542761
-0.473766
-0.390131
-0.307021
-0.220659
-0.13559
-0.0583394
0.0116676
0.0708696
0.0629652
0.0270409
-0.0787029
-0.131192
-0.130694
-0.191115
-0.154732
-0.163092
-0.156801
-0.634632
-0.619098
-0.566285
-0.498377
-0.417284
-0.335896
-0.251503
-0.169087
-0.0957685
-0.030971
0.0278332
0.0189217
-0.023937
-0.0999658
-0.14779
-0.126173
-0.183161
-0.143503
-0.148058
-0.14429
-0.651705
-0.637726
-0.587211
-0.52085
-0.442904
-0.363059
-0.280916
-0.201265
-0.131279
-0.0727265
-0.014537
-0.0253715
-0.0698577
-0.104382
-0.13508
-0.125438
-0.130875
-0.133017
-0.134066
-0.131792
-0.664088
-0.652098
-0.604451
-0.540243
-0.465435
-0.387543
-0.307911
-0.231043
-0.163807
-0.111947
-0.0549155
-0.0681664
-0.122763
-0.107295
-0.0558986
-0.051152
-0.0764504
-0.119632
-0.130238
-0.134342
-0.670656
-0.660939
-0.617085
-0.555427
-0.483431
-0.408123
-0.331254
-0.257168
-0.192189
-0.146431
-0.0908389
-0.106861
-0.186946
-0.180536
-0.0786719
-0.107882
-0.123087
-0.14843
-0.158383
-0.161416
-0.670898
-0.663224
-0.623374
-0.564778
-0.495906
-0.423588
-0.34959
-0.277981
-0.215019
-0.172783
-0.123149
-0.138299
-0.268884
-0.413586
-0.484231
-0.563383
-0.569597
-0.530096
-0.493569
-0.470884
-0.663906
-0.656656
-0.621761
-0.567196
-0.501769
-0.432621
-0.361509
-0.291898
-0.22953
-0.18775
-0.146648
-0.158943
-0.350297
-0.679683
-1.11787
-1.35955
-1.38389
-1.32877
-1.20172
-1.10834
-0.645586
-0.637855
-0.609778
-0.561083
-0.500166
-0.434474
-0.365984
-0.297209
-0.23301
-0.186657
-0.151883
-0.144631
-0.315562
-0.618141
-0.957274
-1.08579
-1.0371
-0.940572
-0.862548
-0.818682
-0.609178
-0.602178
-0.586329
-0.546836
-0.490984
-0.428539
-0.362293
-0.292842
-0.223148
-0.165326
-0.11976
-0.0626574
-0.0195705
0.0629716
0.115452
0.223415
0.335867
0.425989
0.504867
0.574871
-0.563873
-0.560139
-0.55571
-0.524863
-0.475959
-0.416597
-0.350839
-0.279191
-0.200983
-0.121151
-0.0449459
0.0930424
0.306483
0.657619
0.991907
1.27293
1.48433
1.61235
1.67488
1.692
-0.532678
-0.532861
-0.526499
-0.503415
-0.459694
-0.401366
-0.33365
-0.258267
-0.171337
-0.0690664
0.0403268
0.200284
0.488552
0.894545
1.2957
1.62884
1.85956
1.98871
2.04321
2.06009
-0.500994
-0.501854
-0.49568
-0.484084
-0.445226
-0.386844
-0.315788
-0.237048
-0.146039
-0.0365449
0.0809968
0.20096
0.465119
0.799252
1.12581
1.40615
1.61654
1.74224
1.79931
1.81647
-0.472287
-0.471006
-0.470161
-0.467194
-0.430908
-0.373203
-0.300396
-0.219234
-0.129327
-0.0252454
0.08558
0.164254
0.376597
0.651382
0.909057
1.13221
1.31086
1.42134
1.47104
1.48435
-0.461533
-0.459506
-0.464499
-0.457457
-0.420746
-0.360305
-0.286888
-0.206338
-0.122371
-0.0321002
0.0711175
0.126582
0.278621
0.500687
0.703661
0.872403
1.00803
1.09602
1.13559
1.14626
-0.442326
-0.441235
-0.449279
-0.441392
-0.406293
-0.343776
-0.271999
-0.195464
-0.118967
-0.0436367
0.0515149
0.0985843
0.196128
0.36798
0.528557
0.654593
0.752911
0.819388
0.848451
0.854525
-0.400322
-0.401107
-0.406824
-0.399885
-0.370203
-0.313815
-0.249871
-0.180906
-0.112418
-0.0508837
0.0336895
0.0784695
0.137678
0.265294
0.388611
0.481404
0.551664
0.598787
0.618666
0.62549
-0.324903
-0.327177
-0.331248
-0.326758
-0.303839
-0.262425
-0.213892
-0.158376
-0.099771
-0.0505208
0.0204061
0.0628692
0.0991699
0.195593
0.286051
0.351567
0.402502
0.437715
0.452389
0.457334
-0.226545
-0.228733
-0.230578
-0.228605
-0.2157
-0.192308
-0.162596
-0.125386
-0.0800278
-0.0422819
0.0130291
0.0500469
0.0744801
0.149352
0.213974
0.258083
0.296169
0.322018
0.332462
0.335225
-0.129419
-0.130628
-0.132496
-0.133161
-0.129166
-0.120119
-0.106087
-0.0853178
-0.0556722
-0.0288324
0.0109103
0.0397296
0.058583
0.116225
0.161915
0.192093
0.216462
0.232297
0.239443
0.241416
-0.0520323
-0.0529933
-0.0545745
-0.0572419
-0.059215
-0.059314
-0.0558308
-0.0470519
-0.0308115
-0.0145797
0.0120122
0.0345361
0.0488367
0.091307
0.121897
0.142824
0.157271
0.165106
0.167868
0.167878
0.000754564
0.00015171
-0.00129103
-0.00524047
-0.0111201
-0.0161798
-0.0186504
-0.0173278
-0.0104815
-0.00233243
0.0136845
0.0310487
0.0423511
0.0706025
0.0901841
0.102649
0.110471
0.113099
0.112404
0.111296
0.0309542
0.0304634
0.0291005
0.0247708
0.0172654
0.010028
0.00438995
0.00151419
0.00312496
0.00692187
0.0160273
0.0269037
0.0351218
0.0513897
0.0634548
0.0706163
0.0739184
0.0739066
0.0722512
0.0707927
0.0445546
0.0441591
0.0429476
0.039061
0.031912
0.0244237
0.0176519
0.0128089
0.0117712
0.0132456
0.0188464
0.0240091
0.0287373
0.0370716
0.0428562
0.0464279
0.0480574
0.0473746
0.0459051
0.0441937
0.0486853
0.0483534
0.0473544
0.0441988
0.0383866
0.0319482
0.0255545
0.0202099
0.0178842
0.0173201
0.0206811
0.021938
0.0228285
0.027087
0.0297222
0.0310864
0.0308111
0.0286623
0.0267411
0.0252751
0.0478687
0.0476165
0.0468656
0.0446071
0.0403832
0.035357
0.0300927
0.0249875
0.0221117
0.0199348
0.021662
0.0218354
0.0201325
0.0220157
0.0235614
0.0233024
0.0222953
0.0200447
0.017875
0.0165205
0.0449428
0.0447648
0.0442171
0.0426202
0.0395432
0.0357419
0.0315939
0.0271367
0.0243592
0.0215057
0.0221613
0.0218979
0.0214886
0.0231681
0.0239377
0.0238858
0.0223297
0.0210776
0.0197861
0.0182986
0.040841
0.0407262
0.0403141
0.0392473
0.0369832
0.0341528
0.030939
0.0273224
0.0249941
0.0224071
0.0225761
0.022992
0.0234746
0.0253366
0.0263425
0.0267003
0.0260774
0.0250862
0.0244388
0.0233838
0.0362037
0.0361067
0.0357674
0.0350179
0.0334089
0.031435
0.0290297
0.0262509
0.024459
0.0222595
0.0228075
0.023535
0.0245241
0.0271172
0.0284224
0.0287879
0.0306576
0.0313546
0.0314338
0.0303804
0.0315664
0.0314764
0.0312182
0.0307156
0.0295646
0.0282328
0.026481
0.0244376
0.0231802
0.0208907
0.0221087
0.0219016
0.023627
0.0259929
0.0296294
0.0322167
0.0347699
0.0371993
0.0384511
0.0368874
0.0273472
0.0272491
0.0270405
0.0266583
0.0258912
0.025044
0.0237955
0.0221937
0.0212756
0.0191564
0.0196922
0.0196297
0.0226272
0.0245176
0.0291982
0.0348453
0.0373158
0.0398187
0.0419743
0.0405076
0.0236575
0.0235541
0.0234565
0.0231775
0.0226023
0.0220586
0.0211845
0.0195678
0.0187149
0.0165579
0.0165768
0.0161986
0.0178914
0.0226198
0.0287959
0.0342919
0.0401167
0.0419211
0.0426284
0.041984
0.0202098
0.0200861
0.0199983
0.0198049
0.0194562
0.0190299
0.0186267
0.0174443
0.0165272
0.0140116
0.0125211
0.0111027
0.0110415
0.0157019
0.0254299
0.0318617
0.0374847
0.0402815
0.0405703
0.0394103
0.0170797
0.0169614
0.0169157
0.0167402
0.0165625
0.0161626
0.016135
0.0149218
0.0137614
0.011085
0.00773742
0.00654572
0.00538137
0.0103622
0.0192679
0.0263252
0.0291282
0.0320866
0.0339783
0.0327719
0.0139089
0.0137772
0.0138315
0.0139205
0.0140142
0.0134387
0.0131266
0.0123438
0.0112922
0.00914783
0.00552026
0.00336362
-0.000421748
0.00891995
0.0166647
0.0206569
0.027211
0.0313916
0.0337273
0.0328902
0.010286
0.010138
0.0101649
0.0103665
0.0103985
0.0101056
0.00938339
0.0100374
0.0110222
0.00846285
0.005403
0.00115164
-0.00203107
0.00670234
0.0147726
0.0206343
0.0288196
0.0323139
0.0325026
0.0313114
0.00667842
0.00639815
0.00621141
0.00631239
0.00608229
0.00631196
0.00592965
0.00595279
0.00712753
0.00845137
0.00901175
0.00520845
-0.00261323
0.00190165
0.0083722
0.0146482
0.0161133
0.0151672
0.0149401
0.0147403
0.00271345
0.00263996
0.00236268
0.00146332
0.000389142
0.000138788
-0.000443092
5.64914e-05
0.00290564
0.00731884
0.012386
0.00884876
0.000859773
0.00289509
-0.00055383
-0.00234501
-0.00439186
-0.00484005
-0.00295266
-0.00226313
-1.0623
-0.211476
0.0589323
0.338506
0.524272
0.68437
0.816173
0.950146
1.09524
1.17464
-0.0723727
0.339149
0.359043
0.549666
0.67774
0.792259
0.891233
0.978987
1.0073
0.964456
0.311635
0.528511
0.566814
0.704821
0.793451
0.875527
0.943056
0.993655
0.996331
1.00982
0.545658
0.691581
0.727604
0.832264
0.889274
0.949188
0.994731
1.02753
1.03687
1.06036
0.727121
0.83075
0.860508
0.930403
0.974655
1.0171
1.04969
1.0742
1.08421
1.11562
0.872693
0.942719
0.973232
1.01718
1.05364
1.08431
1.10898
1.12981
1.14416
1.17233
0.993154
1.04445
1.07018
1.09862
1.12674
1.1508
1.171
1.19034
1.20538
1.23178
1.09772
1.13501
1.15634
1.17729
1.1984
1.21799
1.23553
1.25372
1.26864
1.29229
1.19217
1.22142
1.238
1.25345
1.26978
1.286
1.30163
1.31862
1.33222
1.35454
1.28085
1.30134
1.31628
1.32965
1.34341
1.35729
1.37081
1.3854
1.39694
1.41658
1.36649
1.38247
1.39643
1.40832
1.42029
1.43193
1.44305
1.45471
1.46236
1.47918
1.45215
1.46488
1.47864
1.49031
1.50089
1.51064
1.51941
1.52764
1.53118
1.54245
1.54114
1.55223
1.56572
1.57496
1.58238
1.58957
1.59673
1.60323
1.60427
1.61168
1.63969
1.64436
1.65238
1.65687
1.66016
1.66463
1.67065
1.67838
1.68224
1.69212
1.75279
1.73918
1.73181
1.72623
1.72357
1.72497
1.7314
1.74379
1.75858
1.78824
1.87403
1.81824
1.78735
1.77021
1.76205
1.76201
1.77077
1.79034
1.82226
1.89148
)
;

boundaryField
{
    wall-4
    {
        type            zeroGradient;
    }
    pressure-outlet-7
    {
        type            fixedValue;
        value           uniform 0;
    }
    velocity-inlet-6
    {
        type            zeroGradient;
    }
    velocity-inlet-5
    {
        type            zeroGradient;
    }
    frontAndBackPlanes
    {
        type            empty;
    }
}


// ************************************************************************* //
