/*--------------------------------*- C++ -*----------------------------------*\
| =========                 |                                                 |
| \\      /  F ield         | OpenFOAM: The Open Source CFD Toolbox           |
|  \\    /   O peration     | Version:  v2012                                 |
|   \\  /    A nd           | Website:  www.openfoam.com                      |
|    \\/     M anipulation  |                                                 |
\*---------------------------------------------------------------------------*/
FoamFile
{
    version     2.0;
    format      ascii;
    class       surfaceScalarField;
    location    "39";
    object      phi;
}
// * * * * * * * * * * * * * * * * * * * * * * * * * * * * * * * * * * * * * //

dimensions      [0 3 -1 0 0 0 0];
oriented        oriented;


internalField   nonuniform List<scalar> 
4262
(
0.10715
0.470838
0.0955898
0.705146
0.0694323
0.858461
0.0474581
1.02074
0.0310766
1.2149
0.0198602
1.44944
0.0124917
1.73323
0.00732694
2.0762
0.00339587
2.48917
-0.000228183
2.98592
-0.00386289
2.98593
-0.00780143
2.48918
-0.0129098
2.07614
-0.0202094
1.73316
-0.0312494
1.44926
-0.0473684
1.21464
-0.06914
1.02054
-0.0953363
0.858499
-0.107108
0.705357
0.47088
0.112895
0.357944
0.135345
0.682695
0.120466
0.873339
0.0979246
1.04328
0.0747291
1.23809
0.0529857
1.47118
0.0344774
1.75174
0.0201857
2.09049
0.0089138
2.50045
-0.0011492
2.99598
-0.0111265
2.9959
-0.0220288
2.50008
-0.0360422
2.09016
-0.054392
1.75151
-0.0761577
1.47103
-0.0997368
1.23821
-0.12275
1.04355
-0.136653
0.872402
-0.113439
0.682144
0.357441
0.0920521
0.265891
0.124989
0.649758
0.121111
0.877218
0.104858
1.05953
0.0862782
1.25667
0.0672831
1.49017
0.0484291
1.77059
0.0305026
2.10842
0.0140808
2.51687
-0.00178701
3.01185
-0.0175996
3.01172
-0.0339257
2.51641
-0.0516289
2.10786
-0.0699347
1.76982
-0.0882558
1.48935
-0.105741
1.2557
-0.120338
1.05815
-0.125327
0.877391
-0.0923407
0.649158
0.2651
0.0640972
0.201794
0.105055
0.6088
0.106913
0.87536
0.095531
1.07091
0.081519
1.27069
0.066767
1.50493
0.0506889
1.78667
0.0335422
2.12557
0.0158223
2.53459
-0.00292817
3.0306
-0.0214082
3.0302
-0.0385728
2.53358
-0.0548856
2.12417
-0.0701893
1.78512
-0.0842004
1.50336
-0.0979103
1.26941
-0.109536
1.06977
-0.106662
0.874517
-0.0647447
0.60724
0.200356
0.037519
0.164275
0.0807866
0.565532
0.0911079
0.865039
0.0839331
1.07809
0.0713338
1.28328
0.0594789
1.51678
0.0467167
1.79943
0.0320206
2.14026
0.0153619
2.55125
-0.00348343
3.04944
-0.0220168
3.04873
-0.0380291
2.54959
-0.0520318
2.13818
-0.0642665
1.79736
-0.0757517
1.51484
-0.0878656
1.28152
-0.0943326
1.07624
-0.0827931
0.862978
-0.0382394
0.562687
0.162116
0.0194644
0.144811
0.0572765
0.52772
0.0727776
0.849538
0.0708069
1.08006
0.0621569
1.29193
0.0513588
1.52758
0.0401267
1.81067
0.0275818
2.15281
0.0125773
2.56625
-0.00504316
3.06706
-0.0223192
3.06601
-0.036449
2.56372
-0.0480256
2.14975
-0.0580624
1.80739
-0.0678592
1.52464
-0.0755491
1.28921
-0.076506
1.0772
-0.0596228
0.846094
-0.0202447
0.523309
0.141872
0.0107043
0.134106
0.0426203
0.495804
0.0589112
0.833247
0.0593625
1.07961
0.0534446
1.29785
0.0443169
1.53671
0.0340633
1.82092
0.0227256
2.16414
0.00969077
2.57929
-0.0059663
3.08272
-0.0212503
3.08129
-0.0334341
2.5759
-0.0435542
2.15987
-0.0527876
1.81663
-0.0608673
1.53272
-0.0655122
1.29386
-0.063642
1.07532
-0.045463
0.827915
-0.0115803
0.489426
0.130291
0.00666502
0.127441
0.0331985
0.469271
0.0496472
0.816798
0.0513037
1.07795
0.046405
1.30275
0.0382675
1.54484
0.0287637
1.83042
0.0179244
2.17498
0.0058382
2.59137
-0.00790251
3.09646
-0.0210366
3.09442
-0.0318642
2.58673
-0.041178
2.16919
-0.0488732
1.82432
-0.055288
1.53913
-0.058536
1.29711
-0.0551849
1.07197
-0.0365349
0.809265
-0.0076882
0.460579
0.122603
0.0047323
0.122709
0.0266523
0.447351
0.0426255
0.800825
0.0448961
1.07568
0.0404098
1.30724
0.0330051
1.55225
0.024249
1.83918
0.014175
2.18506
0.00290157
2.60265
-0.00959441
3.10896
-0.0215062
3.10634
-0.0313159
2.59654
-0.039511
2.17738
-0.0463866
1.8312
-0.0520696
1.54482
-0.0547026
1.29974
-0.0501043
1.06738
-0.0310122
0.790173
-0.00607278
0.43564
0.11653
0.00376066
0.118948
0.0217494
0.429362
0.0369462
0.785628
0.0398636
1.07276
0.035715
1.31139
0.0285752
1.55939
0.0202088
1.84755
0.0106547
2.19461
-0.000143934
2.61344
-0.0121282
3.12094
-0.0232018
3.11741
-0.0320011
2.60534
-0.0393435
2.18472
-0.0454289
1.83728
-0.0502043
1.54959
-0.0519079
1.30144
-0.0460243
1.06149
-0.0269834
0.771132
-0.0053862
0.414043
0.111144
0.00308054
0.115868
0.0176724
0.41477
0.0319073
0.771393
0.0351294
1.06954
0.0312107
1.3153
0.0243939
1.56621
0.0164292
1.85551
0.00726661
2.20377
-0.00312864
2.62384
-0.0148441
3.13266
-0.0256245
3.12819
-0.0337388
2.61345
-0.0399853
2.19097
-0.0450952
1.84239
-0.0492178
1.55372
-0.0500149
1.30224
-0.0428759
1.05435
-0.0239038
0.75216
-0.00502741
0.395166
0.106117
0.00238093
0.113487
0.0136847
0.403467
0.0262554
0.758823
0.029763
1.06603
0.0263208
1.31875
0.0197478
1.57278
0.0117505
1.86351
0.00270674
2.21282
-0.00748171
2.63403
-0.0187119
3.14389
-0.0285877
3.13807
-0.035851
2.62072
-0.0413975
2.19652
-0.0458104
1.84681
-0.0486725
1.55658
-0.048136
1.3017
-0.0398631
1.04608
-0.0213245
0.733622
-0.00475699
0.378599
0.10136
0.00148703
0.112
0.00971883
0.395235
0.0204063
0.748135
0.0234083
1.06303
0.0201384
1.32202
0.0141842
1.57873
0.00673024
1.87096
-0.00204744
2.2216
-0.0120051
2.64399
-0.0225586
3.15444
-0.0317305
3.14724
-0.03836
2.62734
-0.0428949
2.20105
-0.0462339
1.85015
-0.0477383
1.55808
-0.0464159
1.30038
-0.0372943
1.03696
-0.0191763
0.715504
-0.00442913
0.363852
0.0969305
0.000717619
0.111282
0.00658771
0.389365
0.0153919
0.739331
0.0177405
1.06068
0.0140005
1.32576
0.00764915
1.58508
-2.40101e-05
1.87864
-0.00871347
2.23029
-0.0182256
2.6535
-0.0280795
3.16429
-0.0360395
3.1552
-0.0411946
2.6325
-0.0446132
2.20447
-0.0467603
1.85229
-0.047543
1.55886
-0.0453555
1.29819
-0.035348
1.02695
-0.0177066
0.697862
-0.00426621
0.350411
0.0926643
2.05393e-05
0.111262
0.00325298
0.386132
0.00949961
0.733084
0.0108105
1.05937
0.00666399
1.3299
-2.14881e-05
1.59177
-0.008029
1.88664
-0.0168472
2.2391
-0.0259535
2.6626
-0.0345919
3.17293
-0.0408983
3.1615
-0.0445825
2.63618
-0.0468394
2.20673
-0.0484459
1.8539
-0.0484978
1.55892
-0.045291
1.29499
-0.0345228
1.01618
-0.0170031
0.680343
-0.00429232
0.3377
0.088372
-0.000840763
0.112103
-0.000270248
0.385562
0.00393392
0.72888
0.0041203
1.05919
-0.000841704
1.33487
-0.00828949
1.59922
-0.0167519
1.89511
-0.0256147
2.24797
-0.0342753
2.67126
-0.0421121
3.18077
-0.0474835
3.16688
-0.0500356
2.63874
-0.0511512
2.20784
-0.0516106
1.85436
-0.0504511
1.55776
-0.0459284
1.29046
-0.0338665
1.00412
-0.0164686
0.662945
-0.0043535
0.325585
0.0840185
-0.00201813
0.114121
-0.00385853
0.387402
-0.00339013
0.728412
-0.00455065
1.06035
-0.00969686
1.34001
-0.0173225
1.60684
-0.026061
1.90384
-0.0352439
2.25715
-0.0445977
2.68062
-0.0527106
3.18888
-0.0569937
3.17116
-0.0579319
2.63967
-0.0573328
2.20724
-0.0559057
1.85293
-0.0529566
1.55481
-0.0469169
1.28442
-0.0337169
0.990921
-0.0162265
0.645454
-0.00438947
0.313748
0.079629
-0.00332081
0.117442
-0.00765709
0.391738
-0.0101982
0.730953
-0.0132509
1.0634
-0.0194382
1.3462
-0.0278451
1.61525
-0.0371372
1.91314
-0.0469163
2.26693
-0.0562516
2.68995
-0.0637363
3.19637
-0.0672941
3.17472
-0.0671292
2.63951
-0.0648965
2.20501
-0.0620394
1.85007
-0.0576863
1.55045
-0.0493814
1.27612
-0.0343373
0.975877
-0.0164925
0.627609
-0.00458889
0.301845
0.0750401
-0.00486903
0.122311
-0.0128599
0.399729
-0.0192859
0.737379
-0.0250682
1.06918
-0.0319492
1.35308
-0.0410674
1.62437
-0.0513467
1.92342
-0.0619047
2.27749
-0.0719702
2.70002
-0.0794317
3.20383
-0.0811402
3.17642
-0.078559
2.63693
-0.0739891
2.20044
-0.0685638
1.84465
-0.0619727
1.54386
-0.0518381
1.26598
-0.0356082
0.959647
-0.0173431
0.609344
-0.00492519
0.289427
0.070115
-0.00632309
0.128634
-0.0180715
0.411478
-0.0289094
0.748217
-0.0372675
1.07754
-0.0460637
1.36188
-0.056893
1.6352
-0.0684919
1.93501
-0.0803477
2.28934
-0.0903589
2.71003
-0.095897
3.20937
-0.0952665
3.17579
-0.0912363
2.6329
-0.0851601
2.19437
-0.0782002
1.83769
-0.0695751
1.53524
-0.0568124
1.25322
-0.0383033
0.941138
-0.0189385
0.589979
-0.00542889
0.275917
0.0646861
-0.00865673
0.13729
-0.024922
0.427743
-0.040908
0.764203
-0.0529189
1.08955
-0.0633514
1.37231
-0.0755378
1.64738
-0.0889734
1.94845
-0.102227
2.3026
-0.113342
2.72115
-0.11927
3.21529
-0.117582
3.17411
-0.110462
2.62578
-0.100744
2.18465
-0.0899784
1.82692
-0.078331
1.52359
-0.0631939
1.23809
-0.0427834
0.920727
-0.0216239
0.56882
-0.00617376
0.260467
0.0585123
-0.0109122
0.148203
-0.0313398
0.448171
-0.0523023
0.785165
-0.0685438
1.10579
-0.0828707
1.38664
-0.0987983
1.66331
-0.114732
1.96438
-0.129726
2.31759
-0.140899
2.73232
-0.144561
3.21896
-0.138747
3.16829
-0.128501
2.61553
-0.117084
2.17323
-0.10532
1.81516
-0.0917001
1.50997
-0.0733396
1.21972
-0.0494208
0.896809
-0.0250896
0.544489
-0.00703479
0.242412
0.0514775
-0.0155973
0.1638
-0.0431627
0.475736
-0.0703892
0.812392
-0.0919207
1.12732
-0.110094
1.40481
-0.128962
1.68218
-0.14771
1.98313
-0.164008
2.33389
-0.174967
2.74328
-0.177384
3.22137
-0.16992
3.16083
-0.156775
2.60239
-0.141073
2.15753
-0.124442
1.79853
-0.106806
1.49233
-0.0852024
1.19812
-0.057755
0.869361
-0.029422
0.516156
-0.00809938
0.22109
0.0433782
-0.0196255
0.183425
-0.0556347
0.511745
-0.091914
0.848671
-0.119981
1.15539
-0.144094
1.42892
-0.168372
1.70646
-0.1898
2.00456
-0.20673
2.35082
-0.216082
2.75263
-0.214053
3.21934
-0.199938
3.14671
-0.181132
2.58358
-0.162562
2.13896
-0.144954
1.78092
-0.12547
1.47285
-0.0998157
1.17247
-0.0670333
0.836579
-0.0334452
0.482568
-0.00882726
0.196472
0.0345509
-0.0328225
0.216248
-0.0812636
0.560186
-0.126619
0.894027
-0.162107
1.19088
-0.192782
1.4596
-0.220167
1.73384
-0.242664
2.02706
-0.258794
2.36695
-0.265562
2.7594
-0.259574
3.21336
-0.241634
3.12877
-0.219976
2.56192
-0.197469
2.11645
-0.173834
1.75729
-0.148199
1.44721
-0.116698
1.14097
-0.0775674
0.797448
-0.0381474
0.443148
-0.00963302
0.167957
0.0249179
-0.047231
0.263479
-0.119365
0.632321
-0.179836
0.954497
-0.222354
1.2334
-0.258002
1.49524
-0.287343
1.76318
-0.308608
2.04832
-0.321278
2.37962
-0.322538
2.76066
-0.309412
3.20023
-0.284207
3.10357
-0.255643
2.53336
-0.227766
2.08858
-0.202293
1.73181
-0.174232
1.41915
-0.136153
1.10289
-0.0884512
0.749746
-0.0410916
0.395788
-0.00953898
0.136405
0.0153789
-0.033258
0.296737
-0.0944583
0.693521
-0.150284
1.01032
-0.196494
1.27961
-0.239183
1.53793
-0.275393
1.79939
-0.309092
2.08202
-0.338381
2.40891
-0.358829
2.7811
-0.364581
3.20598
-0.351647
3.09064
-0.328424
2.51014
-0.300115
2.06027
-0.263397
1.6951
-0.216645
1.3724
-0.158641
1.04488
-0.0933952
0.684501
-0.0377718
0.340165
-0.00829138
0.106924
0.00708752
-0.0118805
0.308617
-0.0447494
0.72639
-0.0845316
1.05011
-0.122782
1.31786
-0.160314
1.57547
-0.19418
1.83326
-0.225052
2.11289
-0.250416
2.43427
-0.266423
2.79711
-0.267448
3.20701
-0.250644
3.07383
-0.223225
2.48272
-0.186993
2.02403
-0.147628
1.65573
-0.107064
1.33184
-0.0649875
1.00281
-0.0285308
0.648044
-0.00706133
0.318695
-0.000810056
0.100673
0.00627746
0.00138556
0.307232
-0.0215463
0.749322
-0.0499872
1.07855
-0.0794589
1.34733
-0.109691
1.6057
-0.139461
1.86303
-0.167116
2.14055
-0.189961
2.45712
-0.204654
2.8118
-0.205048
3.2074
-0.187911
3.0567
-0.158585
2.45339
-0.124231
1.98968
-0.0867655
1.61826
-0.0467758
1.29185
-0.0110384
0.967069
0.00990965
0.627096
0.0112883
0.317316
0.00406385
0.107898
0.0103413
0.00195163
0.30528
-0.00986387
0.761137
-0.0306761
1.09936
-0.0549554
1.37161
-0.0799105
1.63065
-0.104745
1.88786
-0.128437
2.16424
-0.148162
2.47684
-0.159517
2.82316
-0.157442
3.20533
-0.140788
3.04004
-0.114177
2.42678
-0.0806263
1.95613
-0.0441864
1.58182
-0.012502
1.26016
0.0106864
0.943881
0.0202159
0.617566
0.0158286
0.321704
0.00539766
0.118328
0.015739
0.00460226
0.300678
-0.00335449
0.769094
-0.0206161
1.11662
-0.040574
1.39157
-0.0615796
1.65166
-0.0830735
1.90936
-0.103969
2.18514
-0.121729
2.4946
-0.133162
2.83459
-0.13308
3.20524
-0.116128
3.02309
-0.0891588
2.39981
-0.0599584
1.92693
-0.0299697
1.55184
-0.000164418
1.23036
0.0198415
0.923875
0.0247071
0.612701
0.0170599
0.329351
0.00555864
0.12983
0.0212976
0.00557152
0.295106
0.000197838
0.774468
-0.0150562
1.13187
-0.032869
1.40938
-0.0512938
1.67008
-0.0701536
1.92822
-0.0887013
2.20368
-0.104507
2.51041
-0.113806
2.84389
-0.110441
3.20188
-0.0948836
3.00753
-0.0736477
2.37857
-0.0474433
1.90073
-0.0190962
1.52349
0.00367468
1.20759
0.0185744
0.908975
0.0221489
0.609127
0.0143351
0.337165
0.00453997
0.139625
0.0258376
0.00407763
0.291029
0.000394006
0.778151
-0.0122935
1.14456
-0.0283744
1.42546
-0.0452483
1.68696
-0.0626316
1.9456
-0.079925
2.22098
-0.0952706
2.52575
-0.105783
2.8544
-0.107576
3.20367
-0.0947314
2.99469
-0.0722591
2.3561
-0.046543
1.87501
-0.0226008
1.49955
-0.000709142
1.1857
0.0132378
0.895028
0.0159047
0.60646
0.0103539
0.342715
0.003136
0.146843
0.0289736
0.0025986
0.28843
-0.00068916
0.781439
-0.012266
1.15614
-0.0270243
1.44022
-0.0426897
1.70262
-0.0589032
1.96181
-0.0753637
2.23744
-0.0901558
2.54055
-0.0995475
2.86379
-0.0982622
3.20239
-0.0846074
2.98103
-0.0663302
2.33783
-0.0463965
1.85508
-0.0240847
1.47724
-0.00637624
1.16799
0.00531145
0.88334
0.00909315
0.602678
0.00560196
0.346207
0.00189537
0.150549
0.030869
7.42598e-05
0.288356
-0.00308012
0.784593
-0.013328
1.16639
-0.0264287
1.45332
-0.0413514
1.71755
-0.0570787
1.97754
-0.0731046
2.25346
-0.0877989
2.55524
-0.09874
2.87474
-0.101439
3.20509
-0.0910728
2.97067
-0.071035
2.31779
-0.0491706
1.83321
-0.0322221
1.46029
-0.0154342
1.1512
-0.00459985
0.872506
-0.0006208
0.598699
-0.000169402
0.345755
9.73174e-05
0.150283
0.0309663
-0.000580413
0.288936
-0.00557173
0.789585
-0.0151872
1.176
-0.027425
1.46556
-0.0415143
1.73164
-0.0566067
1.99263
-0.0724973
2.26935
-0.0877135
2.57046
-0.0990189
2.88604
-0.100219
3.20629
-0.0901514
2.9606
-0.0759927
2.30363
-0.0589635
1.81618
-0.0389209
1.44024
-0.0247857
1.13706
-0.0138148
0.861535
-0.0067384
0.591622
-0.00417327
0.34319
-0.00117143
0.147281
0.0297948
-0.00250076
0.291437
-0.00758543
0.794669
-0.0166129
1.18503
-0.0281616
1.47711
-0.0417434
1.74522
-0.0566919
2.00758
-0.0726732
2.28534
-0.0881397
2.58592
-0.100339
2.89824
-0.106256
3.2122
-0.0999767
2.95432
-0.0826283
2.28628
-0.0631265
1.79668
-0.0478544
1.42497
-0.0324532
1.12166
-0.0208398
0.849922
-0.0131866
0.583969
-0.00632062
0.336324
-0.00181111
0.142771
0.0279837
-0.00385271
0.29529
-0.00937905
0.800196
-0.0183143
1.19396
-0.0295485
1.48834
-0.0425923
1.75826
-0.0570808
2.02207
-0.0729707
2.30122
-0.0889577
2.60191
-0.102742
2.91202
-0.109597
3.21906
-0.102023
2.94674
-0.0890105
2.27327
-0.0729703
1.78064
-0.0545027
1.4065
-0.0400168
1.10718
-0.0273785
0.837283
-0.0168112
0.573402
-0.00887087
0.328384
-0.00252567
0.136426
0.0254581
-0.0043604
0.29965
-0.0105365
0.806372
-0.0193858
1.20281
-0.0302125
1.49917
-0.0429034
1.77095
-0.057263
2.03643
-0.0733261
2.31729
-0.0900347
2.61862
-0.105012
2.927
-0.113803
3.22785
-0.11219
2.94513
-0.0989671
2.26005
-0.0794304
1.7611
-0.0627708
1.38984
-0.0458515
1.09026
-0.0323402
0.823772
-0.0210947
0.562156
-0.00964962
0.316939
-0.0026317
0.129408
0.0228264
-0.00447047
0.304121
-0.0113249
0.813226
-0.0203395
1.21183
-0.0310303
1.50986
-0.0433918
1.78331
-0.0574468
2.05048
-0.0735111
2.33335
-0.0906471
2.63575
-0.106895
2.94325
-0.119055
3.24001
-0.118806
2.94488
-0.106961
2.2482
-0.0906398
1.74478
-0.0690357
1.36824
-0.0516427
1.07286
-0.0359007
0.80803
-0.0217787
0.548034
-0.0104226
0.305583
-0.00256838
0.121554
0.020258
-0.00453834
0.308659
-0.0117929
0.820481
-0.0207073
1.22074
-0.0311081
1.52026
-0.0432469
1.79545
-0.0572173
2.06445
-0.0733757
2.34951
-0.091034
2.65341
-0.108691
2.96091
-0.122431
3.25375
-0.125221
2.94767
-0.116214
2.23919
-0.0964929
1.72506
-0.0761648
1.34791
-0.0545851
1.05128
-0.0374084
0.790853
-0.0233243
0.53395
-0.0097132
0.291971
-0.00213044
0.113971
0.0181275
-0.00460228
0.313261
-0.0120169
0.827895
-0.0208841
1.22961
-0.0311895
1.53056
-0.0431155
1.80738
-0.056815
2.07815
-0.0728552
2.36555
-0.0907906
2.67135
-0.109391
2.97951
-0.125849
3.27021
-0.132967
2.95479
-0.124639
2.23087
-0.108066
1.70849
-0.0829904
1.32284
-0.05868
1.02697
-0.0359324
0.768106
-0.0180806
0.516098
-0.00738601
0.281277
-0.00119514
0.10778
0.0169324
-0.00466395
0.317925
-0.0121191
0.835351
-0.020727
1.23822
-0.0307032
1.54054
-0.0423661
1.81904
-0.0559176
2.09171
-0.0719656
2.3816
-0.0903118
2.68969
-0.110176
2.99937
-0.128552
3.28858
-0.13745
2.96369
-0.132957
2.22637
-0.114986
1.69052
-0.0907612
1.29861
-0.060116
0.996329
-0.0331108
0.741101
-0.012664
0.495652
-0.00209018
0.270703
-0.00202632
0.107716
0.0149061
-0.00462627
0.322551
-0.0119623
0.842687
-0.020394
1.24665
-0.0301858
1.55033
-0.0415837
1.83044
-0.0548499
2.10497
-0.0707443
2.39749
-0.0892281
2.70818
-0.109462
3.0196
-0.129474
3.3086
-0.142424
2.97664
-0.141372
2.22532
-0.128283
1.67743
-0.100055
1.27038
-0.0646105
0.960884
-0.0240607
0.700551
0.0126363
0.458955
0.0296543
0.253685
0.0233922
0.113979
0.0382983
-0.00452752
0.327079
-0.0117623
0.849921
-0.0198862
1.25477
-0.0292778
1.55972
-0.0403233
1.84148
-0.0533714
2.11802
-0.0691381
2.41326
-0.0876878
2.72673
-0.108855
3.04077
-0.131279
3.33102
-0.145679
2.99104
-0.149545
2.22919
-0.136034
1.66392
-0.110579
1.24493
-0.0679703
0.918276
-0.0209812
0.653562
0.0282848
0.409689
0.0413216
0.240648
0.018015
0.137285
0.0563133
-0.00432171
0.331401
-0.0113211
0.856921
-0.0192051
1.26266
-0.0283324
1.56885
-0.0390928
1.85224
-0.0517969
2.13072
-0.0672916
2.42875
-0.0858176
2.74525
-0.107223
3.06218
-0.130315
3.35411
-0.148482
3.00921
-0.155473
2.23618
-0.150877
1.65932
-0.1255
1.21955
-0.0826009
0.875376
-0.0109511
0.581912
0.0915684
0.307169
0.179901
0.152316
0.178257
0.138929
0.23457
-0.00418376
0.335584
-0.0111266
0.863864
-0.018909
1.27044
-0.0279604
1.5779
-0.0388701
1.86315
-0.0520556
2.14391
-0.0684454
2.44514
-0.0884858
2.76529
-0.112746
3.08644
-0.141072
3.38244
-0.164608
3.03274
-0.178169
2.24974
-0.175056
1.65621
-0.15542
1.19992
-0.109413
0.829369
-0.058494
0.530993
-0.0924686
0.341144
-0.360932
0.420779
-0.935199
0.713196
0.89739
-1.59802
-0.00397512
0.33956
-0.0106653
0.870554
-0.0182828
1.27806
-0.0272543
1.58687
-0.0381001
1.874
-0.0513475
2.15716
-0.0680876
2.46188
-0.089024
2.78623
-0.114847
3.11226
-0.145596
3.41319
-0.174807
3.06195
-0.19388
2.26881
-0.208938
1.67127
-0.203795
1.19477
-0.188274
0.813849
-0.271356
0.614074
-0.691486
0.761274
-1.4274
1.1567
-2.0384
1.32419
1.21836
-2.35936
-0.0037733
0.343333
-0.0102483
0.877029
-0.0176028
1.28541
-0.0263133
1.59558
-0.0369983
1.88469
-0.0503407
2.1705
-0.0674385
2.47898
-0.0891641
2.80796
-0.116966
3.14006
-0.152482
3.4487
-0.187667
3.09714
-0.217491
2.29863
-0.234396
1.68817
-0.235356
1.19573
-0.322698
0.90119
-0.751325
1.0427
-1.52708
1.53703
-2.10119
1.73081
-2.34279
1.56579
1.33358
-2.45802
-0.00354892
0.346882
-0.00963628
0.883116
-0.0167353
1.29251
-0.0252955
1.60414
-0.0358478
1.89524
-0.0491785
2.18383
-0.0665189
2.49632
-0.0890319
2.83047
-0.118331
3.16936
-0.156215
3.48659
-0.197451
3.13837
-0.231808
2.33299
-0.268606
1.72497
-0.356941
1.28407
-0.694393
1.23864
-1.42568
1.77399
-2.01992
2.13128
-2.26147
1.97236
-2.3758
1.68012
1.39899
-2.44121
-0.00329417
0.350176
-0.00904949
0.888871
-0.0158051
1.29927
-0.0240351
1.61237
-0.034421
1.90562
-0.0477552
2.19716
-0.0653109
2.51388
-0.0884343
2.85359
-0.119485
3.20041
-0.16225
3.52935
-0.210799
3.18692
-0.260171
2.38236
-0.309008
1.77381
-0.487447
1.46251
-1.0858
1.83699
-1.77713
2.46532
-2.10362
2.45777
-2.25386
2.1226
-2.33672
1.76298
1.46481
-2.40254
-0.0031987
0.353375
-0.00879136
0.894464
-0.0155394
1.30601
-0.0238853
1.62072
-0.0345484
1.91629
-0.0481305
2.21075
-0.066161
2.53191
-0.0902477
2.87768
-0.12289
3.23305
-0.167869
3.57433
-0.222645
3.2417
-0.273324
2.43304
-0.367489
1.86797
-0.751701
1.84672
-1.48115
2.56644
-1.96023
2.9444
-2.1614
2.65893
-2.26837
2.22957
-2.34554
1.84014
1.52894
-2.40967
-0.00329084
0.356666
-0.00919929
0.900373
-0.0162889
1.3131
-0.0249896
1.62942
-0.0361225
1.92742
-0.0503778
2.225
-0.0692745
2.55081
-0.0944877
2.90289
-0.129091
3.26766
-0.179276
3.62452
-0.238804
3.30123
-0.307163
2.5014
-0.497197
2.05801
-1.04142
2.39094
-1.67006
3.19509
-1.95096
3.2253
-2.09917
2.80714
-2.21383
2.34423
-2.30767
1.93398
1.59124
-2.36997
-0.00330403
0.35997
-0.00942319
0.906492
-0.0169525
1.32063
-0.026238
1.63871
-0.0379423
1.93912
-0.0528254
2.23988
-0.0725681
2.57055
-0.099104
2.92943
-0.135554
3.30411
-0.187394
3.67636
-0.251804
3.36564
-0.342628
2.59223
-0.62131
2.33669
-1.25506
3.02469
-1.74919
3.68921
-1.95791
3.43403
-2.09967
2.9489
-2.22451
2.46908
-2.33647
2.04594
1.65037
-2.3956
-0.00328854
0.363258
-0.00978115
0.912984
-0.0177469
1.3286
-0.0274471
1.64841
-0.039656
1.95133
-0.0552792
2.25551
-0.075949
2.59122
-0.103614
2.95709
-0.141871
3.34236
-0.19825
3.73274
-0.268831
3.43622
-0.394268
2.71766
-0.773051
2.71547
-1.40207
3.65371
-1.76068
4.04782
-1.93538
3.60873
-2.03916
3.05268
-2.12957
2.55949
-2.1986
2.11496
1.6438
-2.19203
-0.00317611
0.366434
-0.00979551
0.919604
-0.0182583
1.33706
-0.028655
1.6588
-0.0415467
1.96422
-0.0578346
2.2718
-0.0793563
2.61274
-0.108358
2.9861
-0.148463
3.38247
-0.205144
3.78942
-0.28443
3.5155
-0.454734
2.88797
-0.900672
3.16141
-1.45555
4.20859
-1.72108
4.31335
-1.87635
3.764
-1.97139
3.14771
-1.97497
2.56307
-1.90921
2.04921
1.61389
-1.8793
-0.00291003
0.369344
-0.00996178
0.926656
-0.0188344
1.34593
-0.0295438
1.66951
-0.0428058
1.97749
-0.0595835
2.28857
-0.0815522
2.63471
-0.110776
3.01532
-0.151082
3.42278
-0.208452
3.84679
-0.296236
3.60329
-0.497882
3.08961
-0.977738
3.64126
-1.42299
4.65385
-1.5933
4.48366
-1.66216
3.83286
-1.66844
3.15399
-1.52272
2.41735
-1.02413
1.55062
0.589759
-0.0025185
0.371863
-0.00953405
0.933671
-0.0189287
1.35533
-0.030555
1.68114
-0.0449214
1.99185
-0.0629247
2.30658
-0.0866268
2.65841
-0.118559
3.04725
-0.162865
3.46708
-0.225224
3.90915
-0.327612
3.70567
-0.579739
3.34174
-1.11241
4.17394
-1.47654
5.01798
-1.57742
4.58454
-1.57721
3.83265
-1.47643
3.05321
-1.23844
2.17937
-0.639608
0.951781
-0.0498489
-0.00202228
0.373885
-0.00920345
0.940852
-0.0189972
1.36512
-0.0311117
1.69325
-0.0462695
2.00701
-0.0656295
2.32594
-0.0912222
2.684
-0.125615
3.08165
-0.173947
3.51541
-0.243895
3.97909
-0.367337
3.82912
-0.674735
3.64914
-1.22711
4.72631
-1.49517
5.28604
-1.55672
4.64608
-1.53753
3.81345
-1.33692
2.85261
-0.792136
1.63458
-0.113121
0.272766
-0.16297
-0.00131863
0.375204
-0.00797767
0.947511
-0.0180972
1.37524
-0.0311575
1.70631
-0.0473836
2.02324
-0.0678922
2.34645
-0.0951508
2.71126
-0.132287
3.11878
-0.184061
3.56719
-0.260589
4.05562
-0.40575
3.97428
-0.770588
4.01398
-1.30644
5.26217
-1.4886
5.4682
-1.51995
4.67743
-1.43543
3.72893
-1.11058
2.52776
-0.321934
0.845931
0.0279505
-0.0771183
-0.135019
-0.000509621
0.375713
-0.00656326
0.953565
-0.0168856
1.38556
-0.0302859
1.71971
-0.0470654
2.04002
-0.0688301
2.36821
-0.0978849
2.74032
-0.137157
3.15805
-0.191936
3.62197
-0.277925
4.14161
-0.451025
4.14738
-0.87531
4.43826
-1.34824
5.7351
-1.46893
5.58888
-1.47487
4.68337
-1.26143
3.51549
-0.702709
1.96904
-0.0656287
0.208851
0.0323156
-0.175062
-0.102704
0.00116229
0.374551
-0.00350849
0.958236
-0.0139748
1.39603
-0.0283731
1.73411
-0.0459822
2.05763
-0.0686768
2.3909
-0.0990328
2.77067
-0.140455
3.19948
-0.197562
3.67907
-0.291057
4.2351
-0.487687
4.34401
-0.960567
4.91114
-1.34426
6.1188
-1.41312
5.65774
-1.37394
4.64419
-1.08645
3.228
-0.339737
1.22232
-0.00290429
-0.127981
0.0119077
-0.189875
-0.0907959
0.00316743
0.371384
0.000363187
0.96104
-0.0104287
1.40682
-0.0247431
1.74843
-0.042344
2.07523
-0.0660306
2.41459
-0.0976797
2.80232
-0.140455
3.24225
-0.200307
3.73893
-0.302247
4.33704
-0.523288
4.56505
-1.02132
5.40917
-1.30405
6.40153
-1.34521
5.6989
-1.21983
4.5188
-0.797714
2.80589
-0.0871988
0.511807
0.0451375
-0.260318
0.0258726
-0.17061
-0.0649233
0.00547395
0.36591
0.00427198
0.962242
-0.0049299
1.41602
-0.019082
1.76258
-0.0371472
2.09329
-0.0612463
2.43869
-0.0933836
2.83446
-0.137315
3.28618
-0.19856
3.80017
-0.306219
4.4447
-0.551353
4.81018
-1.03545
5.89327
-1.23386
6.59994
-1.25133
5.71638
-1.04532
4.3128
-0.477006
2.23758
-0.00157899
0.0363798
0.0113396
-0.273236
0.0149309
-0.174201
-0.0499924
0.00836514
0.357544
0.00980766
0.960799
0.0026165
1.42322
-0.010255
1.77545
-0.0279649
2.111
-0.052219
2.46294
-0.0845202
2.86676
-0.128143
3.32981
-0.190658
3.86269
-0.304238
4.55828
-0.566896
5.07284
-1.01168
6.33806
-1.14066
6.72891
-1.12781
5.70353
-0.883643
4.06863
-0.287215
1.64115
-0.0642484
-0.186587
-0.0375943
-0.29989
-0.010571
-0.201224
-0.0605634
0.0123932
0.345151
0.0181481
0.955044
0.0135942
1.42777
0.00237581
1.78667
-0.0161249
2.1295
-0.0394186
2.48624
-0.0704234
2.89777
-0.113336
3.37272
-0.174587
3.92394
-0.289396
4.67309
-0.554696
5.33814
-0.936825
6.72019
-1.01186
6.80394
-0.959014
5.65069
-0.70348
3.8131
-0.134768
1.07244
-0.0653893
-0.255966
-0.0422258
-0.323054
-0.0152227
-0.228227
-0.0757861
0.0178456
0.327306
0.0291012
0.943789
0.0275744
1.4293
0.017721
1.79652
0.00167201
2.14555
-0.0193284
2.50724
-0.0486861
2.92712
-0.0890387
3.41307
-0.148041
3.98294
-0.2612
4.78625
-0.508705
5.58565
-0.817365
7.02885
-0.86413
6.85071
-0.77394
5.5605
-0.46724
3.5064
-0.00906856
0.614265
0.0150874
-0.280122
0.00702116
-0.314988
0.00232236
-0.223528
-0.0734637
0.0246095
0.302696
0.0435282
0.92487
0.0471452
1.42568
0.0398567
1.80381
0.0269622
2.15845
0.00786026
2.52634
-0.0185064
2.95349
-0.0547592
3.44932
-0.108015
4.0362
-0.211023
4.88926
-0.419925
5.79455
-0.640044
7.24897
-0.69296
6.90362
-0.590258
5.45779
-0.24806
3.1642
0.0749441
0.291261
0.0611555
-0.266333
0.0561156
-0.309948
0.0389547
-0.206368
-0.034509
0.0332196
0.269477
0.0619646
0.896125
0.0720942
1.41555
0.0697923
1.80611
0.0611122
2.16713
0.0453356
2.54212
0.0231736
2.97565
-0.00775887
3.48026
-0.0534321
4.08187
-0.135006
4.97083
-0.296987
5.95653
-0.435647
7.38763
-0.477924
6.9459
-0.439693
5.41956
-0.184955
2.90946
-0.0736817
0.179988
-0.0516789
-0.288336
0.00086437
-0.362491
0.0344618
-0.239965
-4.71781e-05
0.04279
0.226687
0.0847363
0.854179
0.104748
1.39554
0.108515
1.80235
0.104187
2.17145
0.0929794
2.55332
0.0778929
2.99074
0.0557021
3.50245
0.020351
4.11722
-0.0251139
5.0163
-0.115774
6.04719
-0.197641
7.4695
-0.264514
7.01277
-0.367279
5.52233
-0.351278
2.89346
-0.564423
0.393133
-0.554156
-0.298604
-0.382397
-0.534249
-0.171833
-0.450529
-0.17188
0.0531667
0.17352
0.112164
0.795182
0.14557
1.36213
0.157615
1.7903
0.16016
2.16891
0.154906
2.55858
0.147428
2.99822
0.136405
3.51347
0.122966
4.13066
0.104781
5.03448
0.123065
6.0289
0.137691
7.45487
0.0632908
7.08717
-0.107448
5.69307
-0.436895
3.22291
-0.807042
0.763281
-0.832247
-0.273399
-0.637532
-0.728964
-0.311417
-0.776645
-0.483296
0.0571388
0.116381
0.141004
0.711317
0.193914
1.30922
0.218635
1.76558
0.229659
2.15788
0.231808
2.55643
0.233813
2.99621
0.236835
3.51045
0.246844
4.12065
0.270865
5.01046
0.404515
5.89525
0.572839
7.28654
0.65464
7.00537
0.682323
5.66538
0.331477
3.57376
-0.218751
1.31351
-0.561741
0.0695919
-0.604347
-0.686359
-0.314237
-1.06676
-0.797533
0.050747
0.0656341
0.168822
0.593242
0.251919
1.22613
0.292367
1.72513
0.313957
2.13629
0.326192
2.54419
0.33815
2.98425
0.356499
3.4921
0.394347
4.0828
0.475594
4.92921
0.76137
5.60948
1.2598
6.78811
1.675
6.59018
2.02015
5.32023
1.84604
3.74786
1.17023
1.98932
0.607594
0.632227
0.177664
-0.256429
-0.0230615
-0.86603
-0.820595
0.0371709
0.0284632
0.197513
0.432899
0.312566
1.11107
0.380119
1.65758
0.41583
2.10058
0.440031
2.51999
0.4598
2.96448
0.4923
3.4596
0.558622
4.01648
0.699214
4.78862
1.09629
5.2124
1.82579
6.05861
2.24555
6.17043
2.48029
5.08549
2.40151
3.82664
1.9573
2.43354
1.45359
1.13594
0.95684
0.240316
0.369432
-0.278621
-0.451163
0.0306689
-0.00220571
0.217831
0.245737
0.38854
0.940364
0.482416
1.5637
0.531361
2.05164
0.568713
2.48264
0.598043
2.93515
0.643565
3.41408
0.722991
3.93705
0.884276
4.62733
1.26096
4.83572
2.01059
5.30897
2.40799
5.77303
2.62413
4.86934
2.59657
3.8542
2.20295
2.82716
1.58936
1.74953
0.963226
0.866452
0.417934
0.266671
-0.0332292
0.0280044
-0.0302101
0.186983
0.0867584
0.443533
0.683815
0.597595
1.40964
0.669959
1.97928
0.715324
2.43728
0.751843
2.89864
0.791559
3.37436
0.854779
3.87383
0.988162
4.49395
1.22254
4.60135
1.83422
4.69729
2.2031
5.40415
2.29384
4.7786
2.2235
3.92453
1.95033
3.10032
1.46014
2.23972
0.9202
1.40639
0.392718
0.794153
0.359488
0.0185731
-0.0487832
0.111162
-0.00583017
0.398058
0.396918
0.59023
1.21747
0.678666
1.89084
0.708312
2.40763
0.719612
2.88734
0.712093
3.38188
0.706423
3.8795
0.721235
4.47914
0.778022
4.54456
1.01549
4.45982
1.24764
5.172
1.24301
4.78323
1.16355
4.004
1.0136
3.25027
0.766132
2.48719
0.473066
1.69946
0.191683
1.07554
0.551171
0.00846743
-0.0572507
0.0581137
-0.0554764
0.250162
0.20487
0.429107
1.03852
0.519389
1.80056
0.551479
2.37554
0.568372
2.87044
0.566029
3.38422
0.560478
3.88505
0.552821
4.4868
0.569383
4.528
0.716661
4.31255
0.900443
4.98822
0.898023
4.78565
0.822084
4.07994
0.707378
3.36498
0.53652
2.65805
0.321674
1.9143
0.120612
1.2766
0.671783
0.0257006
-0.0829513
0.0664663
-0.0962421
0.142807
0.128529
0.269525
0.911804
0.349657
1.72043
0.389235
2.33596
0.41224
2.84744
0.422688
3.37377
0.424823
3.88292
0.421182
4.49044
0.415816
4.53337
0.496191
4.23217
0.626965
4.85744
0.628723
4.78389
0.561006
4.14765
0.470325
3.45566
0.350787
2.77759
0.20397
2.06112
0.065555
1.41501
0.737338
0.0284335
-0.111385
0.0542073
-0.122016
0.0479803
0.134756
0.108873
0.850912
0.175472
1.65383
0.228061
2.28337
0.263697
2.8118
0.289087
3.34838
0.305776
3.86623
0.311177
4.48504
0.298234
4.54631
0.334365
4.19604
0.419259
4.77255
0.418331
4.78482
0.364307
4.20168
0.289669
3.5303
0.199735
2.86752
0.0966162
2.16424
0.0112423
1.50039
0.748581
0.0152117
-0.126597
0.00816888
-0.114973
-0.0376524
0.180578
-0.0363946
0.849654
0.0133941
1.60404
0.0695174
2.22725
0.122276
2.75904
0.166808
3.30385
0.201248
3.83179