/*--------------------------------*- C++ -*----------------------------------*\
| =========                 |                                                 |
| \\      /  F ield         | OpenFOAM: The Open Source CFD Toolbox           |
|  \\    /   O peration     | Version:  v2012                                 |
|   \\  /    A nd           | Website:  www.openfoam.com                      |
|    \\/     M anipulation  |                                                 |
\*---------------------------------------------------------------------------*/
FoamFile
{
    version     2.0;
    format      ascii;
    class       surfaceScalarField;
    location    "43";
    object      phi;
}
// * * * * * * * * * * * * * * * * * * * * * * * * * * * * * * * * * * * * * //

dimensions      [0 3 -1 0 0 0 0];
oriented        oriented;


internalField   nonuniform List<scalar> 
4262
(
0.107138
0.470851
0.095564
0.70516
0.069369
0.858498
0.0473497
1.02078
0.0309873
1.21488
0.0198224
1.44938
0.0124626
1.73322
0.00730641
2.07619
0.00337664
2.48917
-0.000209804
2.98588
-0.00384894
2.98593
-0.00786255
2.48926
-0.0130214
2.0762
-0.0201919
1.73303
-0.0311338
1.44916
-0.0472484
1.21463
-0.0690481
1.02056
-0.0952861
0.858541
-0.107091
0.705391
0.470897
0.112905
0.357946
0.135349
0.682715
0.12049
0.873356
0.0979742
1.0433
0.0747167
1.23814
0.052962
1.47114
0.0345363
1.75165
0.0202554
2.09047
0.00890307
2.50053
-0.00131586
2.9961
-0.0114598
2.99608
-0.0224867
2.50028
-0.0364063
2.09011
-0.0546456
1.75127
-0.0764092
1.47093
-0.0999865
1.23821
-0.122971
1.04355
-0.136763
0.872333
-0.113482
0.68211
0.357415
0.0920769
0.265869
0.125038
0.649755
0.121197
0.877197
0.104937
1.05956
0.0862973
1.25678
0.0671777
1.49026
0.0483144
1.77051
0.0303899
2.1084
0.0140123
2.5169
-0.00174511
3.01186
-0.0173254
3.01166
-0.0333579
2.51632
-0.0509532
2.10771
-0.0696266
1.76995
-0.0882192
1.48952
-0.105731
1.25572
-0.120247
1.05806
-0.125309
0.877395
-0.0923492
0.649149
0.265066
0.0640182
0.201851
0.104906
0.608867
0.106735
0.875367
0.0954109
1.07088
0.08154
1.27065
0.0668067
1.50499
0.0505978
1.78672
0.0334157
2.12558
0.0156945
2.53462
-0.00306795
3.03062
-0.0215782
3.03017
-0.0387549
2.53349
-0.0552685
2.12422
-0.0704869
1.78517
-0.0843016
1.50333
-0.0979435
1.26936
-0.109604
1.06972
-0.106721
0.874513
-0.0647589
0.607187
0.200307
0.0375542
0.164296
0.0809144
0.565507
0.091261
0.865021
0.0841253
1.07802
0.0716072
1.28316
0.0598606
1.51674
0.0469051
1.79968
0.0320021
2.14048
0.0152157
2.55141
-0.00379399
3.04963
-0.0225288
3.0489
-0.0387429
2.54971
-0.0528086
2.13829
-0.0651242
1.79748
-0.0764499
1.51466
-0.088376
1.28129
-0.094701
1.07605
-0.0830102
0.862822
-0.0383163
0.562493
0.161991
0.0195132
0.144783
0.0573274
0.527692
0.0727689
0.849579
0.0706954
1.08009
0.0619577
1.2919
0.0511729
1.52752
0.0400739
1.81078
0.0275381
2.15302
0.0124706
2.56648
-0.00519421
3.06729
-0.022451
3.06616
-0.0366041
2.56386
-0.0480988
2.14978
-0.0580399
1.80742
-0.0678032
1.52442
-0.075526
1.28901
-0.0765247
1.07705
-0.0596595
0.845957
-0.0202782
0.523112
0.141713
0.010653
0.13413
0.042478
0.495867
0.0587395
0.833318
0.05911
1.07972
0.0529576
1.29805
0.0435976
1.53688
0.0334137
1.82096
0.022247
2.16419
0.00931544
2.57941
-0.00637413
3.08298
-0.0217811
3.08156
-0.0337638
2.57584
-0.0436429
2.15966
-0.052464
1.81624
-0.0606802
1.53264
-0.0655235
1.29385
-0.0637494
1.07527
-0.0455472
0.827754
-0.0115943
0.489159
0.130118
0.00663496
0.127495
0.0331469
0.469356
0.0494812
0.816984
0.0510646
1.07814
0.0461167
1.303
0.037861
1.54514
0.0283303
1.83049
0.0175649
2.17495
0.00554899
2.59143
-0.00822978
3.09676
-0.0213156
3.09465
-0.0319896
2.58652
-0.0412782
2.16895
-0.0492028
1.82417
-0.0558095
1.53924
-0.0591167
1.29716
-0.055676
1.07183
-0.0368374
0.808916
-0.00776964
0.460091
0.122349
0.00480233
0.122693
0.0268827
0.447275
0.0430208
0.800846
0.0453476
1.07581
0.0408562
1.30749
0.0333935
1.5526
0.0244433
1.83944
0.0141123
2.18528
0.00262448
2.60291
-0.0100737
3.10946
-0.0220787
3.10666
-0.0321079
2.59655
-0.0404152
2.17726
-0.0473785
1.83113
-0.0529781
1.54484
-0.0554327
1.29962
-0.0506395
1.06704
-0.0313526
0.789629
-0.0061754
0.434914
0.116173
0.00382909
0.118864
0.0218985
0.429206
0.0372289
0.785515
0.0402593
1.07278
0.0362305
1.31152
0.0291512
1.55968
0.0205301
1.84806
0.0105334
2.19528
-0.000722183
2.61417
-0.0128435
3.12158
-0.0241158
3.11793
-0.0332716
2.6057
-0.040908
2.1849
-0.047021
1.83724
-0.0515494
1.54937
-0.0529331
1.301
-0.0468014
1.06091
-0.0274255
0.770253
-0.00552246
0.413011
0.110651
0.00304001
0.115824
0.0175684
0.414677
0.03163
0.771453
0.0348409
1.06957
0.0310927
1.31527
0.0244843
1.56629
0.0164892
1.85606
0.00697509
2.20479
-0.00390548
2.62505
-0.015687
3.13336
-0.0264565
3.1287
-0.0349798
2.61423
-0.0415565
2.19147
-0.0467452
1.84243
-0.050535
1.55316
-0.0510174
1.30148
-0.0436777
1.05357
-0.024381
0.750956
-0.00515417
0.393784
0.105497
0.00243731
0.113387
0.0140878
0.403027
0.0269437
0.758598
0.0302445
1.06627
0.0263908
1.31913
0.0195598
1.57312
0.0114862
1.86413
0.00241015
2.21387
-0.00777322
2.63523
-0.0192538
3.14484
-0.0295257
3.13897
-0.0370046
2.6217
-0.0425042
2.19697
-0.0467163
1.84664
-0.0497678
1.55621
-0.0493114
1.30103
-0.0410041
1.04526
-0.02203
0.731982
-0.00491375
0.376668
0.100583
0.00171574
0.111671
0.0104195
0.394323
0.0213062
0.747711
0.0242148
1.06336
0.0204653
1.32287
0.0137978
1.57979
0.00581307
1.87212
-0.00311465
2.2228
-0.0132299
2.64535
-0.0242312
3.15584
-0.0334162
3.14815
-0.0395792
2.62787
-0.0440618
2.20145
-0.0478185
1.8504
-0.0499359
1.55833
-0.0487973
1.29989
-0.0393548
1.03582
-0.0204165
0.713044
-0.00477249
0.361024
0.0958105
0.000849423
0.110821
0.00703808
0.388135
0.0162591
0.73849
0.0186994
1.06092
0.0146346
1.32694
0.00775906
1.58666
-0.000246919
1.88012
-0.00914201
2.23169
-0.0187093
2.65492
-0.0289832
3.16612
-0.0376863
3.15686
-0.0432438
2.63342
-0.0467833
2.20499
-0.0495047
1.85312
-0.0505017
1.55933
-0.0485261
1.29791
-0.0378644
1.02516
-0.0190852
0.694265
-0.00462993
0.346568
0.0911806
6.73723e-05
0.110754
0.0037859
0.384416
0.0104806
0.731795
0.0120684
1.05933
0.00801064
1.331
0.00108132
1.59359
-0.00732553
1.88853
-0.0165476
2.24091
-0.0266236
2.66499
-0.0367455
3.17624
-0.0441532
3.16426
-0.0483099
2.63758
-0.0509403
2.20762
-0.0525043
1.85469
-0.0522694
1.55909
-0.0487426
1.29438
-0.0370475
1.01346
-0.0182713
0.675489
-0.00454208
0.332839
0.0866385
-0.000771778
0.111526
0.000391202
0.383253
0.00516058
0.727026
0.00568445
1.05881
0.000836727
1.33584
-0.00670582
1.60114
-0.0156195
1.89744
-0.0254312
2.25073
-0.0351185
2.67468
-0.0436452
3.18477
-0.0498086
3.17043
-0.0533554
2.64113
-0.0551022
2.20937
-0.055905
1.85549
-0.0550243
1.55821
-0.0501512
1.28951
-0.0370299
1.00034
-0.0180555
0.656514
-0.00464023
0.319424
0.0819983
-0.00172
0.113246
-0.00294955
0.384483
-0.00161262
0.725689
-0.00285087
1.06005
-0.00831361
1.34131
-0.0162277
1.60905
-0.0256231
1.90684
-0.0357592
2.26086
-0.0460174
2.68494
-0.0549499
3.1937
-0.060283
3.17576
-0.0623304
2.64318
-0.0624097
2.20945
-0.0611982
1.85428
-0.0584115
1.55543
-0.0519671
1.28307
-0.0377179
0.986092
-0.018357
0.637153
-0.00486858
0.305936
0.0771297
-0.0030558
0.116302
-0.00665993
0.388087
-0.00858276
0.727612
-0.0115038
1.06297
-0.0181092
1.34791
-0.0271493
1.61809
-0.0372255
1.91691
-0.0479218
2.27156
-0.0580878
2.6951
-0.0660148
3.20163
-0.0696107
3.17936
-0.0700639
2.64363
-0.0689101
2.2083
-0.0672561
1.85262
-0.0635818
1.55175
-0.0552329
1.27472
-0.03904
0.969899
-0.0189
0.617013
-0.00511168
0.292147
0.072018
-0.00448987
0.120792
-0.0112752
0.394872
-0.0167231
0.733059
-0.0226104
1.06886
-0.0303588
1.35566
-0.0403231
1.62805
-0.0514165
1.92801
-0.0627903
2.28293
-0.0737058
2.70602
-0.0824119
3.21033
-0.0859421
3.18289
-0.0848083
2.6425
-0.08111
2.2046
-0.0760806
1.84759
-0.0696695
1.54534
-0.0592934
1.26434
-0.0412093
0.951815
-0.0200079
0.595812
-0.00552454
0.277664
0.0664935
-0.00593875
0.12673
-0.0164601
0.405393
-0.0261583
0.742758
-0.0344322
1.07713
-0.0441476
1.36538
-0.0563386
1.64024
-0.069075
1.94074
-0.0816944
2.29555
-0.0926061
2.71693
-0.0993332
3.21706
-0.0992789
3.18283
-0.0953788
2.63859
-0.090186
2.19941
-0.0849782
1.84239
-0.0774618
1.53782
-0.0644283
1.25131
-0.0438292
0.931216
-0.0213297
0.573312
-0.00593236
0.262267
0.0605611
-0.00844151
0.135172
-0.0240575
0.421009
-0.0395482
0.758248
-0.0516706
1.08925
-0.0628595
1.37657
-0.0760979
1.65348
-0.0903969
1.95504
-0.104352
2.30951
-0.115876
2.72845
-0.122398
3.22358
-0.121775
3.18221
-0.116465
2.63328
-0.108303
2.19124
-0.0984052
1.83249
-0.0870882
1.52651
-0.071114
1.23533
-0.0479513
0.908053
-0.0236035
0.548964
-0.00657356
0.245237
0.0539876
-0.0108556
0.146027
-0.031119
0.441273
-0.0519886
0.779118
-0.0683524
1.10562
-0.0830385
1.39125
-0.099593
1.67004
-0.116165
1.97161
-0.131637
2.32498
-0.143478
2.7403
-0.148152
3.22825
-0.143498
3.17756
-0.13363
2.62342
-0.122791
2.1804
-0.11216
1.82186
-0.0994242
1.51377
-0.0801256
1.21604
-0.0534839
0.881412
-0.026432
0.521913
-0.00722671
0.226031
0.0467608
-0.0155169
0.161544
-0.0429862
0.468742
-0.0703341
0.806466
-0.0918967
1.12718
-0.110114
1.40947
-0.12943
1.68935
-0.148597
1.99078
-0.165717
2.3421
-0.177815
2.75239
-0.181394
3.23183
-0.175071
3.17123
-0.163681
2.61203
-0.150053
2.16678
-0.134145
1.80595
-0.115951
1.49558
-0.0921897
1.19227
-0.0613172
0.850539
-0.0303376
0.490933
-0.00810039
0.203794
0.0386605
-0.0196392
0.181183
-0.0558141
0.504917
-0.0924296
0.843081
-0.120703
1.15545
-0.144496
1.43326
-0.168758
1.71361
-0.190448
2.01247
-0.207961
2.35961
-0.218387
2.76282
-0.21809
3.23154
-0.206601
3.15974
-0.189673
2.5951
-0.171382
2.14849
-0.154196
1.78876
-0.134332
1.47571
-0.106313
1.16426
-0.0702122
0.814438
-0.0342161
0.454937
-0.00880393
0.178382
0.0298565
-0.0328166
0.214
-0.0818923
0.553993
-0.128174
0.889363
-0.16352
1.1908
-0.19345
1.46319
-0.221002
1.74117
-0.243905
2.03537
-0.260882
2.37659
-0.268803
2.77074
-0.263785
3.22652
-0.246776
3.14274
-0.226227
2.57455
-0.205619
2.12788
-0.183072
1.76622
-0.156383
1.44903
-0.122233
1.13011
-0.0799763
0.772181
-0.0383045
0.413265
-0.00934845
0.149426
0.0205081
-0.0474498
0.26145
-0.12062
0.627163
-0.182274
0.951017
-0.22536
1.23388
-0.260749
1.49858
-0.289864
1.77028
-0.310968
2.05648
-0.323661
2.38928
-0.324962
2.77204
-0.312649
3.2142
-0.289245
3.11933
-0.262882
2.54819
-0.235865
2.10086
-0.209757
1.74011
-0.180581
1.41985
-0.140345
1.08987
-0.089626
0.721462
-0.040587
0.364226
-0.00922549
0.118064
0.0112826
-0.033766
0.295216
-0.096111
0.689508
-0.152883
1.00779
-0.199331
1.28033
-0.241817
1.54107
-0.278379
1.80684
-0.312147
2.09025
-0.341474
2.41861
-0.362307
2.79288
-0.368153
3.22005
-0.354214
3.10539
-0.329993
2.52397
-0.302808
2.07367
-0.269205
1.70651
-0.224564
1.37521
-0.165702
1.03101
-0.0969041
0.652664
-0.0386163
0.305938
-0.00848018
0.0879284
0.00280239
-0.0123658
0.307582
-0.0464897
0.723632
-0.0874955
1.0488
-0.126321
1.31916
-0.164326
1.57907
-0.197907
1.84042
-0.228559
2.1209
-0.253575
2.44362
-0.268165
2.80747
-0.26662
3.2185
-0.248921
3.08769
-0.221965
2.49701
-0.188633
2.04034
-0.153214
1.67109
-0.115213
1.33721
-0.0725204
0.988315
-0.0329714
0.613115
-0.00939987
0.282367
-0.00166123
0.0801898
0.00114117
0.000766212
0.306815
-0.023174
0.747572
-0.05234
1.07796
-0.0824411
1.34926
-0.113519
1.61015
-0.143741
1.87065
-0.171075
2.14823
-0.19292
2.46547
-0.205878
2.82042
-0.205502
3.21813
-0.185837
3.06803
-0.155789
2.46696
-0.123603
2.00816
-0.0881833
1.63567
-0.0496983
1.29872
-0.0138937
0.95251
0.00752934
0.591692
0.00912289
0.280773
0.00301019
0.0863025
0.00415136
0.00125277
0.305563
-0.0117843
0.760609
-0.0335019
1.09968
-0.0584402
1.3742
-0.084103
1.63581
-0.109137
1.89568
-0.132428
2.17152
-0.150953
2.48399
-0.1608
2.83027
-0.155196
3.21252
-0.135677
3.04851
-0.110434
2.44172
-0.0780695
1.97579
-0.0426305
1.60023
-0.0124471
1.26854
0.00978945
0.930274
0.0192514
0.58223
0.0145774
0.285447
0.00480964
0.0960702
0.008961
0.00436475
0.301198
-0.00423806
0.769212
-0.0223842
1.11782
-0.043406
1.39522
-0.0653828
1.65779
-0.0871524
1.91745
-0.107573
2.19194
-0.124324
2.50075
-0.134211
2.84016
-0.132738
3.21105
-0.116984
3.03276
-0.0901635
2.4149
-0.0588812
1.94451
-0.0289514
1.5703
0.00109479
1.23849
0.0216378
0.909731
0.0254504
0.578418
0.0167391
0.294159
0.00526924
0.10754
0.0142302
0.0053632
0.295835
-0.000502681
0.775078
-0.0166259
1.13395
-0.035381
1.41397
-0.0547396
1.67715
-0.0738795
1.93659
-0.0921896
2.21025
-0.107466
2.51602
-0.115691
2.84838
-0.112407
3.20777
-0.0965491
3.0169
-0.0744207
2.39277
-0.048465
1.91856
-0.0186899
1.54052
0.00561992
1.21418
0.021292
0.894059
0.0238846
0.575825
0.0150191
0.303024
0.0047175
0.117842
0.0189477
0.00400416
0.291831
-5.46919e-05
0.779137
-0.0133754
1.14727
-0.0303587
1.43096
-0.0480726
1.69486
-0.0658286
1.95435
-0.08284
2.22727
-0.0971977
2.53038
-0.106332
2.85752
-0.106339
3.20777
-0.0925988
3.00316
-0.0688192
2.36899
-0.0436958
1.89343
-0.0204916
1.51732
0.00302093
1.19067
0.0171196
0.87996
0.0185814
0.574363
0.0116307
0.309975
0.00355511
0.125917
0.0225028
0.00270425
0.289126
-0.000757959
0.782599
-0.0128822
1.15939
-0.0283304
1.44641
-0.0448448
1.71138
-0.0613358
1.97084
-0.0774778
2.24341
-0.0918107
2.54471
-0.101474
2.86718
-0.100326
3.20663
-0.0871716
2.99
-0.0703187
2.35214
-0.0480506
1.87116
-0.0220814
1.49135
-0.00303333
1.17162
0.00879253
0.868134
0.0120208
0.571135
0.00718319
0.314812
0.00225499
0.130845
0.0247578
0.000195767
0.28893
-0.00310042
0.785895
-0.0137701
1.17006
-0.0275144
1.46015
-0.0429936
1.72686
-0.0589526
1.9868
-0.0749865
2.25944
-0.0895459
2.55927
-0.0996357
2.87727
-0.10129
3.20828
-0.0921263
2.98084
-0.0727406
2.33275
-0.0503423
1.84877
-0.0307131
1.47172
-0.0119239
1.15283
0.000357484
0.855853
0.00306326
0.568429
0.0023051
0.31557
0.000944032
0.132207
0.0257019
-0.000426235
0.289357
-0.00505122
0.79052
-0.014969
1.17998
-0.027839
1.47302
-0.0426336
1.74165
-0.0580118
2.00217
-0.073715
2.27514
-0.0884059
2.57396
-0.0995227
2.88839
-0.103451
3.21221
-0.0928873
2.97028
-0.0758397
2.3157
-0.0570858
1.83001
-0.0365949
1.45123
-0.0209696
1.13721
-0.0102095
0.845093
-0.00369701
0.561917
-0.0024775
0.314351
-0.000647086
0.130376
0.0250548
-0.00212426
0.291481
-0.00732622
0.795722
-0.0165997
1.18925
-0.0285228
1.48494
-0.0424788
1.75561
-0.0575054
2.0172
-0.0733411
2.29098
-0.0888776
2.5895
-0.101687
2.9012
-0.106499
3.21702
-0.0984991
2.96228
-0.0822333
2.29944
-0.0629245
1.8107
-0.0461212
1.43443
-0.0292049
1.12029
-0.0168121
0.8327
-0.0100014
0.555106
-0.00461302
0.308963
-0.00122311
0.126986
0.0238317
-0.0035805
0.295062
-0.00882878
0.80097
-0.0178401
1.19827
-0.0293977
1.4965
-0.042856
1.76907
-0.0574966
2.03184
-0.0733781
2.30686
-0.0892993
2.60542
-0.102555
2.91445
-0.109225
3.22369
-0.104441
2.95749
-0.089544
2.28454
-0.0719484
1.79311
-0.052139
1.41462
-0.036834
1.10499
-0.024279
0.820145
-0.0142394
0.545067
-0.00737395
0.302097
-0.0020282
0.12164
0.0218035
-0.00424185
0.299303
-0.0102597
0.806988
-0.01913
1.20714
-0.0301263
1.5075
-0.0430139
1.78195
-0.0574215
2.04625
-0.0734223
2.32286
-0.0900009
2.622
-0.105399
2.92985
-0.115365
3.23366
-0.111638
2.95377
-0.0985039
2.2714
-0.0778189
1.77242
-0.0598274
1.39663
-0.0424847
1.08764
-0.0287044
0.806365
-0.0183491
0.534711
-0.00821728
0.291965
-0.00219853
0.115622
0.0196049
-0.00436338
0.303667
-0.0109
0.813525
-0.0198333
1.21607
-0.0306473
1.51831
-0.0432391
1.79454
-0.0573409
2.06035
-0.0733367
2.33886
-0.0904101
2.63907
-0.106501
2.94594
-0.117435
3.24459
-0.117543
2.95387
-0.105644
2.25951
-0.0880355
1.75481
-0.0658803
1.37447
-0.0481426
1.06991
-0.0330046
0.791227
-0.0193365
0.521043
-0.00902216
0.281651
-0.00216828
0.108768
0.0174367
-0.00444659
0.308113
-0.0115359
0.820614
-0.0204047
1.22494
-0.0308378
1.52874
-0.0430227
1.80673
-0.0569175
2.07425
-0.0729654
2.35491
-0.0905801
2.65669
-0.108478
2.96384
-0.123155
3.25927
-0.12575
2.95647
-0.114599
2.24835
-0.0937041
1.73392
-0.0728554
1.35362
-0.0509995
1.04805
-0.0337559
0.773983
-0.020494
0.507781
-0.00831423
0.269471
-0.00177947
0.102233
0.0156572
-0.00450164
0.312615
-0.0117021
0.827815
-0.020455
1.23369
-0.030733
1.53902
-0.0426949
1.81869
-0.0563432
2.08789
-0.0723688
2.37093
-0.0903794
2.6747
-0.108918
2.98238
-0.124359
3.27471
-0.129736
2.96184
-0.121416
2.24003
-0.105219
1.71772
-0.0791791
1.32758
-0.0543752
1.02325
-0.0325322
0.75214
-0.0155908
0.49084
-0.00591427
0.259795
-0.000770958
0.0970898
0.0148862
-0.00458623
0.317201
-0.0119053
0.835134
-0.0204341
1.24222
-0.0303411
1.54893
-0.0419352
1.83029
-0.0553901
2.10135
-0.0713975
2.38694
-0.0896733
2.69297
-0.109473
3.00218
-0.128392
3.29363
-0.137548
2.971
-0.131687
2.23417
-0.111585
1.69762
-0.086437
1.30244
-0.0551401
0.991949
-0.0280509
0.725051
-0.00905148
0.47184
-0.000473077
0.251216
-0.00192971
0.0985464
0.0129565
-0.0045661
0.321767
-0.0117497
0.842317
-0.0200381
1.25051
-0.0297231
1.55861
-0.0410703
1.84163
-0.0542583
2.11454
-0.0701084
2.40279
-0.088568
2.71143
-0.108927
3.02254
-0.128475
3.31318
-0.139634
2.98216
-0.137629
2.23217
-0.124186
1.68418
-0.0947082
1.27296
-0.0582874
0.955528
-0.0185884
0.685352
0.0168232
0.436429
0.0322141
0.235825
0.024125
0.106636
0.0370815
-0.00448097
0.326248
-0.011607
0.849443
-0.0196347
1.25854
-0.0289153
1.56789
-0.0398431
1.85256
-0.0527563
2.12745
-0.0684554
2.41849
-0.0870076
2.72999
-0.108185
3.04371
-0.130273
3.33526
-0.145069
2.99696
-0.14783
2.23493
-0.132093
1.66844
-0.104762
1.24563
-0.0603523
0.911118
-0.0130239
0.638023
0.0344295
0.388975
0.0433652
0.22689
0.0189357
0.131065
0.0560172
-0.00429319
0.330541
-0.0111957
0.856346
-0.0189375
1.26628
-0.0279254
1.57688
-0.0385803
1.86322
-0.0511702
2.14004
-0.0666212
2.43394
-0.0851802
2.74854
-0.106616
3.06515
-0.129368
3.35802
-0.146419
3.01401
-0.152019
2.24053
-0.146082
1.6625
-0.1187
1.21824
-0.0737475
0.866166
1.1203e-05
0.564265
0.100787
0.2882
0.184815
0.142862
0.179759
0.13612
0.235777
-0.0041626
0.334704
-0.0110298
0.863213
-0.0187208
1.27397
-0.0276381
1.5858
-0.0383904
1.87397
-0.0514237
2.15307
-0.0677758
2.45029
-0.0878537
2.76862
-0.112029
3.08932
-0.139913
3.3859
-0.163141
3.03723
-0.175773
2.25316
-0.170222
1.65695
-0.147847
1.19587
-0.0985898
0.816908
-0.0457725
0.511448
-0.0845765
0.327004
-0.359837
0.418122
-0.93771
0.713993
0.89844
-1.60037
-0.00397101
0.338675
-0.0106075
0.86985
-0.0180907
1.28145
-0.0269025
1.59461
-0.0376138
1.88468
-0.0507432
2.1662
-0.0674506
2.467
-0.0883903
2.78956
-0.114202
3.11514
-0.144828
3.41653
-0.172962
3.06537
-0.190391
2.27059
-0.20341
1.66997
-0.19477
1.18723
-0.175812
0.797951
-0.261683
0.597318
-0.692432
0.757752
-1.43294
1.15863
-2.04276
1.32382
1.21779
-2.36212
-0.00376983
0.342445
-0.0101992
0.876279
-0.0174695
1.28872
-0.0260397
1.60318
-0.0365591
1.8952
-0.0497544
2.1794
-0.066819
2.48406
-0.088583
2.81133
-0.116343
3.1429
-0.151239
3.45142
-0.185667
3.0998
-0.214149
2.29907
-0.228628
1.68445
-0.226555
1.18516
-0.313686
0.885082
-0.752642
1.03627
-1.5332
1.53831
-2.10445
1.72987
-2.3452
1.56457
1.33266
-2.46006
-0.00356853
0.346013
-0.00962797
0.882339
-0.0166015
1.2957
-0.0250009
1.61158
-0.0354158
1.90561
-0.0486339
2.19262
-0.0659416
2.50137
-0.0884643
2.83385
-0.117762
3.17219
-0.155559
3.48922
-0.196033
3.14027
-0.229061
2.3321
-0.263499
1.71889
-0.349639
1.2713
-0.69215
1.22759
-1.42994
1.77407
-2.02253
2.1309
-2.26338
1.97072
-2.37728
1.67846
1.39766
-2.44228
-0.00330877
0.349322
-0.00903653
0.888066
-0.0157165
1.30237
-0.0238115
1.61968
-0.0340326
1.91583
-0.047225
2.20581
-0.0647575
2.5189
-0.0879492
2.85704
-0.118986
3.20323
-0.161078
3.53131
-0.208547
3.18774
-0.255988
2.37954
-0.303493
1.7664
-0.483417
1.45122
-1.08916
1.83333
-1.78115
2.46606
-2.10548
2.45524
-2.25492
2.12016
-2.33743
1.76097
1.46344
-2.40321
-0.00323222
0.352554
-0.00882091
0.893655
-0.0154465
1.309
-0.0236278
1.62786
-0.034148
1.92635
-0.047633
2.21929
-0.0656477
2.53692
-0.0897564
2.88115
-0.122369
3.23584
-0.167418
3.57636
-0.221527
3.24185
-0.271932
2.42994
-0.365152
1.85962
-0.751207
1.83728
-1.4847
2.56682
-1.96155
2.94291
-2.16213
2.65582
-2.26877
2.22681
-2.34586
1.83806
1.52732
-2.40975
-0.0033277
0.355882
-0.00921415
0.899541
-0.0162316
1.31602
-0.0247894
1.63642
-0.035739
1.9373
-0.0498577
2.23341
-0.0687535
2.55581
-0.09407
2.90647
-0.128743
3.27052
-0.178335
3.62595
-0.236623
3.30014
-0.302365
2.49568
-0.492883
2.05013
-1.0437
2.38809
-1.67331
3.19643
-1.95222
3.22181
-2.09987
2.80348
-2.21413
2.34107
-2.30779
1.93172
1.58933
-2.3698
-0.00336663
0.359249
-0.0095058
0.905681
-0.0168905
1.3234
-0.0259833
1.64551
-0.0375365
1.94886
-0.0523389
2.24821
-0.0720968
2.57557
-0.0986804
2.93305
-0.135117
3.30695
-0.187338
3.67817
-0.251886
3.36468
-0.342253
2.58605
-0.622608
2.33049
-1.25923
3.02471
-1.75099
3.6882
-1.95891
3.42973
-2.09993
2.9445
-2.2242
2.46534
-2.33547
2.04299
1.64816
-2.3943
-0.00335486
0.362604
-0.00982991
0.912156
-0.0177342
1.33131
-0.0272875
1.65506
-0.0392959
1.96087
-0.0547781
2.2637
-0.0754754
2.59627
-0.103296
2.96087
-0.14171
3.34537
-0.197549
3.73401
-0.266304
3.43344
-0.391261
2.71101
-0.773394
2.71262
-1.40513
3.65645
-1.76193
4.045
-1.93596
3.60375
-2.03883
3.04737
-2.12832
2.55484
-2.19657
2.11123
1.64131
-2.18972
-0.0032691
0.365873
-0.00994934
0.918836
-0.0182456
1.3396
-0.0284208
1.66524
-0.0411621
1.97361
-0.0573958
2.27993
-0.078977
2.61785
-0.108073
2.98997
-0.148158
3.38545
-0.205262
3.79112
-0.28552
3.5137
-0.45682
2.88231
-0.904738
3.16054
-1.45937
4.21108
-1.72298
4.30862
-1.87659
3.75736
-1.97073
3.1415
-1.97341
2.55752
-1.90626
2.04408
1.60916
-1.87411
-0.00304486
0.368918
-0.0100501
0.925841
-0.0188878
1.34844
-0.0294606
1.67581
-0.0425129
1.98666
-0.0591569
2.29657
-0.0811916
2.63989
-0.110629
3.0194
-0.151167
3.42599
-0.207996
3.84795
-0.294253
3.59995
-0.497573
3.08563
-0.981929
3.6449
-1.42571
4.65485
-1.59391
4.47682
-1.66238
3.82583
-1.66782
3.14694
-1.52128
2.41098
-1.02191
1.54471
0.587254
-0.00262853
0.371546
-0.00977699
0.93299
-0.0189881
1.35765
-0.0303561
1.68718
-0.0445792
2.00088
-0.06258
2.31458
-0.0864058
2.66371
-0.118498
3.0515
-0.162811
3.4703
-0.225677
3.91081
-0.330079
3.70436
-0.583945
3.33949
-1.1183
4.17925
-1.47976
5.01631
-1.58026
4.57732
-1.57875
3.82433
-1.47676
3.04495
-1.23793
2.17215
-0.636833
0.943607
-0.049579
-0.00211373
0.37366
-0.00933917
0.940215
-0.0191447
1.36746
-0.0311469
1.69918
-0.04609
2.01583
-0.065321
2.33381
-0.0910275
2.68942
-0.125722
3.08619
-0.174424
3.51901
-0.243709
3.9801
-0.365697
3.82635
-0.676555
3.65035
-1.23304
4.73574
-1.4987
5.28197
-1.55904
4.63766
-1.53874
3.80403
-1.33717
2.84338
-0.788848
1.62383
-0.111512
0.266271
-0.161091
-0.00152538
0.375185
-0.00835991
0.94705
-0.0182501
1.37735
-0.0310047
1.71193
-0.0471106
2.03193
-0.0676904
2.35439
-0.0951737
2.7169
-0.132609
3.12363
-0.184626
3.57102
-0.262016
4.05749
-0.410643
3.97497
-0.779255
4.01896
-1.31387
5.27035
-1.4933
5.4614
-1.52434
4.6687
-1.43791
3.7176
-1.10747
2.51295
-0.318687
0.835043
0.0267241
-0.0791409
-0.134367
-0.000604164
0.375789
-0.00678745
0.953233
-0.0171591
1.38772
-0.0305005
1.72528
-0.0470894
2.04852
-0.068746
2.37604
-0.0979894
2.74614
-0.137692
3.16333
-0.192718
3.62605
-0.278394
4.14316
-0.450823
4.1474
-0.881355
4.4495
-1.35531
5.7443
-1.47463
5.58073
-1.47916
4.67323
-1.26134
3.49978
-0.696765
1.94837
-0.0643521
0.20263
0.0315922
-0.175085
-0.102775
0.000795605
0.374994
-0.00411145
0.95814
-0.0142794
1.39789
-0.0282829
1.73928
-0.0458081
2.06605
-0.0686894
2.39892
-0.099424
2.77688
-0.141317
3.20522
-0.198995
3.68373
-0.293847
4.23801
-0.495198
4.34875
-0.974753
4.92905
-1.35376
6.12331
-1.41976
5.64673
-1.37731
4.63078
-1.0884
3.21087
-0.332788
1.19276
0.00107659
-0.131234
0.0135474
-0.187556
-0.0892272
0.00307506
0.371919
0.000120475
0.961094
-0.010784
1.40879
-0.0251865
1.75368
-0.0426422
2.0835
-0.0662911
2.42257
-0.0982546
2.80884
-0.141676
3.24864
-0.202122
3.74417
-0.304597
4.34049
-0.526627
4.57078
-1.03125
5.43368
-1.31202
6.40407
-1.354
5.68871
-1.22233
4.49911
-0.787534
2.77608
-0.079075
0.484297
0.0472962
-0.257605
0.0263951
-0.166655
-0.0628321
0.00518711
0.366732
0.0037971
0.962484
-0.00525802
1.41785
-0.0190412
1.76746
-0.0370417
2.1015
-0.0615238
2.44706
-0.0942826
2.8416
-0.138953
3.29331
-0.20125
3.80647
-0.310932
4.45017
-0.564105
4.82396
-1.05341
5.92298
-1.24804
6.59871
-1.262
5.70266
-1.04934
4.28645
-0.470367
2.19711
-0.00744175
0.0213712
0.00454156
-0.269589
0.012156
-0.174269
-0.0506761
0.00833297
0.358399
0.00956571
0.961252
0.00218539
1.42523
-0.0109154
1.78057
-0.0285343
2.11912
-0.052918
2.47144
-0.0857224
2.87441
-0.130351
3.33794
-0.194058
3.87018
-0.30973
4.56584
-0.57792
5.09215
-1.02555
6.37061
-1.1514
6.72456
-1.14073
5.69199
-0.89129
4.037
-0.275224
1.58104
-0.0636229
-0.19023
-0.0362082
-0.297003
-0.0109528
-0.199525
-0.0616289
0.0121009
0.346298
0.0175534
0.955799
0.0131987
1.42958
0.00244829
1.79132
-0.015987
2.13756
-0.0398516
2.4953
-0.0719137
2.90647
-0.116017
3.38204
-0.17925
3.93341
-0.296775
4.68337
-0.574506
5.36988
-0.959475
6.75558
-1.03128
6.79637
-0.969537
5.63025
-0.701775
3.76924
-0.114257
0.993526
-0.0419284
-0.262558
-0.0324038
-0.306528
-0.012229
-0.2197
-0.0738579
0.0178916
0.328406
0.028989
0.944702
0.0272796
1.43129
0.0171597
1.80144
0.000777536
2.15394
-0.0204827
2.51656
-0.050537
2.93652
-0.0924055
3.42391
-0.153333
3.99434
-0.270189
4.80022
-0.52793
5.62762
-0.838694
7.06634
-0.877702
6.83538
-0.785396
5.53794
-0.467693
3.45154
0.0141868
0.511646
0.0353033
-0.283675
0.020649
-0.291873
0.00539682
-0.204447
-0.068461
0.0244892
0.303917
0.0431728
0.926018
0.0469809
1.42748
0.0401601
1.80826
0.0274536
2.16664
0.00746398
2.53655
-0.0203778
2.96436
-0.0585453
3.46208
-0.114891
4.05068
-0.222215
4.90755
-0.44708
5.85248
-0.674104
7.29336
-0.718535
6.87981
-0.609282
5.42869
-0.277928
3.12019
0.0285256
0.205193
0.0353088
-0.290458
0.0402564
-0.296821
0.0217001
-0.185891
-0.0467609
0.0336981
0.270219
0.0625201
0.897196
0.0725425
1.41746
0.0698133
1.81099
0.0607721
2.17569
0.0443365
2.55299
0.0210308
2.98767
-0.0122748
3.49539
-0.0607268
4.09913
-0.149633
4.99645
-0.318001
6.02085
-0.464203
7.43957
-0.511526
6.92713
-0.43809
5.35525
-0.134566
2.81666
-0.00994361
0.0805711
-0.00745977
-0.292941
0.0234364
-0.327717
0.0398147
-0.20227
-0.00694616
0.0433275
0.226891
0.0853662
0.855157
0.105602
1.39723
0.110003
1.80658
0.105898
2.17979
0.0938263
2.56506
0.0767968
3.0047
0.0520013
3.52018
0.0109296
4.14021
-0.0439851
5.05137
-0.152798
6.12967
-0.232151
7.51892
-0.259481
6.95446
-0.299354
5.39513
-0.214275
2.73158
-0.380384
0.24668
-0.357794
-0.315531
-0.208796
-0.476716
-0.0337977
-0.377267
-0.0407438
0.0546016
0.17229
0.114311
0.795448
0.148242
1.36329
0.160032
1.79479
0.161848
2.17798
0.155617
2.57129
0.14642
3.0139
0.132297
3.5343
0.113226
4.15928
0.0862221
5.07837
0.0813713
6.13452
0.0709739
7.52932
-0.00386482
7.0293
-0.171346
5.56261
-0.417161
2.9774
-0.750977
0.580496
-0.736138
-0.33037
-0.539299
-0.673555
-0.245176
-0.671391
-0.28592
0.0582569
0.114033
0.143791
0.709914
0.197623
1.30946
0.22347
1.76895
0.234994
2.16645
0.236381
2.56991
0.235951
3.01433
0.234476
3.53578
0.236056
4.1577
0.246131
5.0683
0.349655
6.03099
0.468066
7.4109
0.462596
7.03477
0.383933
5.64127
0.00795647
3.35337
-0.486926
1.07538
-0.739716
-0.0775796
-0.652442
-0.760829
-0.358268
-0.965565
-0.644187
0.0510047
0.0630281
0.173195
0.587724
0.259555
1.2231
0.300663
1.72784
0.321468
2.14565
0.332603
2.55877
0.341749
3.00518
0.356512
3.52102
0.386171
4.12804
0.445019
5.00945
0.688625
5.78739
1.05985
7.03968
1.38269
6.71193
1.62414
5.39982
1.31629
3.66122
0.682002
1.70967
0.160071
0.444352
-0.122469
-0.47829
-0.182286
-0.905748
-0.826473
0.0366905
0.0263376
0.203858
0.420557
0.321574
1.10539
0.392489
1.65692
0.43019
2.10795
0.454103
2.53486
0.470942
2.98834
0.498412
3.49355
0.552871
4.07358
0.675429
4.88689
1.0449
5.41792
1.70876
6.37582
2.10271
6.31798
2.35524
5.14729
2.22304
3.79341
1.68867
2.24404
1.18891
0.944112
0.634576
0.0760492
0.221862
-0.493034
-0.604611
0.0312064
-0.00486874
0.224965
0.226798
0.405557
0.924795
0.503162
1.55932
0.553232
2.05788
0.59008
2.49801
0.617736
2.96068
0.658573
3.45271
0.737337
3.99482
0.894835
4.72939
1.30848
5.00428
2.08175
5.60256
2.48211
5.91762
2.68899
4.94041
2.63611
3.84629
2.16142
2.71874
1.5555
1.55003
0.963561
0.667986
0.428368
0.0421587
-0.176243
0.028187
-0.0330558
0.182381
0.0726036
0.457403
0.649773
0.624464
1.39226
0.702784
1.97956
0.749014
2.45178
0.786958
2.92274
0.825723
3.41394
0.896504
3.92404
1.03853
4.58737
1.32396
4.71885
2.02949
4.89702
2.39125
5.55586
2.52386
4.8078
2.45834
3.91181
2.14276
3.03431
1.59251
2.10028
1.01193
1.24857
0.415379
0.638705
0.239136
0.0125743
-0.0456301
0.0982861
-0.0131082
0.40377
0.344289
0.622294
1.17373
0.726695
1.87516
0.758481
2.41999
0.769068
2.91215
0.759617
3.4234
0.753764
3.92989
0.785066
4.55606
0.859669
4.64425
1.1515
4.60519
1.38978
5.31758
1.39123
4.80635
1.31518
3.98786
1.15147
3.19802
0.861468
2.39029
0.53741
1.57263
0.224275
0.95184
0.46341
-1.36308e-05
-0.0456165
0.0429768
-0.0560987
0.246636
0.14063
0.464722
0.955648
0.569457
1.77042
0.606208
2.38324
0.623222
2.89514
0.62016
3.42646
0.609095
3.94095
0.60856
4.5566
0.641216
4.61159
0.813892
4.43251
1.02716
5.10432
1.02892
4.80458
0.957742
4.05904
0.831445
3.32432
0.63148
2.59025
0.383029
1.82108
0.150055
1.18481
0.613465
0.0180072
-0.0636236
0.0614155
-0.099507
0.154769
0.0472763
0.324467
0.78595
0.420702
1.67418
0.459307
2.34464
0.47474
2.87971
0.479874
3.42132
0.476345
3.94448
0.472014
4.56093
0.477886
4.60572
0.58119
4.32921
0.729296
4.95621
0.728291
4.80558
0.657396
4.12994
0.554651
3.42707
0.414437
2.73046
0.243232
1.99228
0.0848664
1.34318
0.698332
0.0357083
-0.099332
0.0801046
-0.143903
0.102083
0.0252977
0.183351
0.704682
0.257497
1.60004
0.303017
2.29912
0.327072
2.85565
0.344905
3.40349
0.355602
3.93379
0.356548
4.55998
0.350173
4.61209
0.401903
4.27748
0.499352
4.85876
0.496
4.80894
0.433614
4.19232
0.353348
3.50733
0.253454
2.83036
0.135016
2.11072
0.0311404
1.44706
0.729472
0.0339211
-0.133253
0.059466
-0.169448
0.0244
0.0603638
0.0319709
0.697111
0.0832772
1.54873
0.134838
2.24756
0.177485
2.813
0.212099
3.36888
0.240369