/*--------------------------------*- C++ -*----------------------------------*\
| =========                 |                                                 |
| \\      /  F ield         | OpenFOAM: The Open Source CFD Toolbox           |
|  \\    /   O peration     | Version:  v2012                                 |
|   \\  /    A nd           | Website:  www.openfoam.com                      |
|    \\/     M anipulation  |                                                 |
\*---------------------------------------------------------------------------*/
FoamFile
{
    version     2.0;
    format      ascii;
    class       surfaceScalarField;
    location    "30";
    object      phi;
}
// * * * * * * * * * * * * * * * * * * * * * * * * * * * * * * * * * * * * * //

dimensions      [0 3 -1 0 0 0 0];
oriented        oriented;


internalField   nonuniform List<scalar> 
4262
(
0.107145
0.470843
0.0955826
0.705148
0.0694164
0.858469
0.0474095
1.02077
0.0310083
1.21492
0.019843
1.44938
0.0125092
1.7332
0.00728426
2.07626
0.00329356
2.48923
-0.00020807
2.98579
-0.00376448
2.98585
-0.0077645
2.48924
-0.0129412
2.07621
-0.0201339
1.73306
-0.0311514
1.44924
-0.0474008
1.21477
-0.0692499
1.02061
-0.0954195
0.858473
-0.107138
0.705305
0.47085
0.112897
0.357946
0.135341
0.682705
0.120489
0.873322
0.0980448
1.04321
0.0749521
1.23801
0.0532135
1.47112
0.0346907
1.75172
0.0204427
2.09051
0.00919385
2.50048
-0.00102974
2.99602
-0.0111383
2.99596
-0.0220992
2.5002
-0.0361048
2.09022
-0.0546388
1.75159
-0.0763813
1.47098
-0.099626
1.23801
-0.122341
1.04333
-0.136453
0.872585
-0.113372
0.682224
0.357478
0.0920452
0.2659
0.124969
0.649781
0.121071
0.877219
0.104707
1.05958
0.0860925
1.25663
0.0670361
1.49018
0.0481125
1.77064
0.0302394
2.10838
0.0139901
2.51673
-0.00157162
3.01158
-0.0170778
3.01146
-0.0332266
2.51635
-0.0509025
2.10789
-0.0692523
1.76994
-0.0876412
1.48937
-0.105421
1.25579
-0.120625
1.05853
-0.125293
0.877253
-0.0922656
0.649197
0.265212
0.0639799
0.201921
0.104855
0.608905
0.106642
0.875433
0.0951613
1.07106
0.0809583
1.27083
0.0663299
1.50481
0.0506058
1.78637
0.0337821
2.12521
0.0162222
2.53429
-0.00248963
3.03029
-0.0210256
3.03
-0.038073
2.5334
-0.0541214
2.12394
-0.0692389
1.78506
-0.0834676
1.5036
-0.0974698
1.26979
-0.108984
1.07005
-0.106278
0.874547
-0.0645488
0.607468
0.200663
0.0375233
0.164397
0.0808563
0.565572
0.0913101
0.864979
0.0842884
1.07808
0.071711
1.28341
0.0595851
1.51693
0.0466642
1.79929
0.0320847
2.13979
0.0157325
2.55064
-0.00309901
3.04912
-0.0215748
3.04848
-0.0372718
2.5491
-0.0512789
2.13795
-0.0637974
1.79758
-0.0754417
1.51524
-0.0874709
1.28182
-0.0938627
1.07644
-0.0824815
0.863166
-0.0381336
0.56312
0.16253
0.0193848
0.145012
0.0569062
0.528051
0.0721823
0.849703
0.0703448
1.07992
0.062021
1.29173
0.0514753
1.52748
0.0402171
1.81055
0.0277105
2.15229
0.0129311
2.56542
-0.00433497
3.06639
-0.0213125
3.06545
-0.0353782
2.56316
-0.0470716
2.14964
-0.0571633
1.80767
-0.0667993
1.52488
-0.0743471
1.28937
-0.0753299
1.07742
-0.0588457
0.846682
-0.0200073
0.524281
0.142522
0.0105348
0.134478
0.0422264
0.496359
0.0583867
0.833543
0.0588361
1.07947
0.0530719
1.29749
0.0442445
1.53631
0.0342559
1.82054
0.0229562
2.16359
0.0100281
2.57835
-0.00526185
3.08168
-0.0202657
3.08046
-0.0324763
2.57537
-0.042647
2.15981
-0.0517105
1.81673
-0.0596593
1.53283
-0.0642057
1.29392
-0.0624895
1.0757
-0.0447431
0.828935
-0.0113368
0.490875
0.131185
0.00661967
0.127858
0.0329452
0.470034
0.0492552
0.817233
0.0508044
1.07792
0.0459451
1.30235
0.0379934
1.54426
0.0287047
1.82982
0.0180745
2.17422
0.00632224
2.5901
-0.00676186
3.09476
-0.019265
3.09296
-0.0298616
2.58597
-0.0390533
2.16901
-0.0468183
1.8245
-0.0532458
1.53925
-0.0567952
1.29747
-0.053905
1.07281
-0.035721
0.810751
-0.00747071
0.462625
0.123715
0.00451454
0.123344
0.0257423
0.448806
0.0413164
0.801659
0.0434555
1.07578
0.0390398
1.30677
0.0319995
1.5513
0.0237146
1.83811
0.0142419
2.18369
0.00351102
2.60084
-0.00833496
3.10661
-0.0196318
3.10426
-0.0290349
2.59537
-0.0370789
2.17705
-0.0435239
1.83094
-0.0490166
1.54475
-0.0518413
1.30029
-0.0476462
1.06862
-0.0293944
0.7925
-0.00565237
0.438883
0.118062
0.00327365
0.12007
0.0202874
0.431792
0.0349756
0.786971
0.0378764
1.07288
0.0338719
1.31077
0.026989
1.55818
0.0191103
1.84599
0.0102284
2.19258
0.000355041
2.61071
-0.0106732
3.11764
-0.02092
3.1145
-0.0289418
2.6034
-0.0355281
2.18364
-0.0413807
1.83679
-0.0461541
1.54952
-0.0478436
1.30198
-0.0423571
1.06313
-0.0245927
0.774735
-0.00466761
0.418958
0.113395
0.00252424
0.117546
0.0156734
0.418643
0.0287288
0.773915
0.0319761
1.06963
0.0286899
1.31406
0.0226235
1.56425
0.0155896
1.85302
0.00742847
2.20074
-0.00209212
2.62023
-0.012925
3.12847
-0.0227754
3.12435
-0.030193
2.61081
-0.0357708
2.18921
-0.0403535
1.84138
-0.0439483
1.55311
-0.0446162
1.30265
-0.0380834
1.0566
-0.020964
0.757616
-0.00417237
0.402166
0.109222
0.00178538
0.11576
0.0113372
0.409091
0.0226471
0.762605
0.0257852
1.06649
0.0228273
1.31702
0.0172512
1.56982
0.0105446
1.85973
0.00280417
2.20848
-0.00626076
2.62929
-0.0166012
3.13881
-0.0257396
3.13349
-0.0320056
2.61708
-0.0362577
2.19347
-0.0393518
1.84447
-0.0413884
1.55515
-0.0407667
1.30203
-0.033653
1.04949
-0.017706
0.741669
-0.0038883
0.388348
0.105334
0.000864762
0.114895
0.00680647
0.40315
0.0153604
0.754051
0.0177528
1.0641
0.0150634
1.31971
0.0102011
1.57469
0.00403523
1.86589
-0.0031519
2.21567
-0.0112324
2.63737
-0.0197595
3.14734
-0.0268446
3.14058
-0.0316226
2.62186
-0.0347993
2.19664
-0.037203
1.84687
-0.0383448
1.55629
-0.0370251
1.30071
-0.0293957
1.04186
-0.014586
0.726859
-0.0034742
0.377236
0.10186
-0.000104054
0.115
0.0022197
0.400826
0.00852217
0.747749
0.0104309
1.06219
0.00767849
1.32246
0.00287491
1.57949
-0.00330053
1.87207
-0.010379
2.22274
-0.0178021
2.6448
-0.0248653
3.1544
-0.0302303
3.14594
-0.0335549
2.62518
-0.0356447
2.19873
-0.0363003
1.84753
-0.03572
1.55571
-0.0330596
1.29805
-0.024896
1.03369
-0.0116888
0.713652
-0.00291801
0.368466
0.0989419
-0.000986585
0.115986
-0.00120635
0.401046
0.00219505
0.744347
0.00287902
1.06151
9.72889e-05
1.32524
-0.00450935
1.5841
-0.0104256
1.87799
-0.0171914
2.22951
-0.024288
2.65189
-0.0308472
3.16096
-0.0352637
3.15036
-0.0371827
2.6271
-0.0373665
2.19892
-0.0364552
1.84662
-0.0347878
1.55405
-0.0311627
1.29442
-0.0225457
1.02508
-0.0102968
0.701403
-0.00268809
0.360857
0.0962538
-0.00223315
0.118219
-0.00469286
0.403505
-0.00461693
0.744272
-0.00461465
1.06151
-0.00791568
1.32854
-0.0130421
1.58922
-0.0190492
1.88399
-0.0256262
2.23609
-0.0324511
2.65872
-0.0384769
3.16699
-0.04164
3.15352
-0.0418671
2.62733
-0.040497
2.19755
-0.0385275
1.84465
-0.0353008
1.55082
-0.0300851
1.2892
-0.0208479
1.01584
-0.00965948
0.690215
-0.00271461
0.353912
0.0935392
-0.00328821
0.121507
-0.0081223
0.408339
-0.0110722
0.747222
-0.0137659
1.0642
-0.0176939
1.33247
-0.0229659
1.5945
-0.0291198
1.89015
-0.0356763
2.24264
-0.0420274
2.66507
-0.0470711
3.17203
-0.0487618
3.15521
-0.0471898
2.62576
-0.0440977
2.19445
-0.040584
1.84114
-0.0362032
1.54644
-0.0303212
1.28332
-0.0208066
1.00632
-0.00992764
0.679336
-0.00288472
0.346869
0.0906545
-0.00399178
0.125499
-0.0112544
0.415602
-0.0168405
0.752808
-0.0211111
1.06847
-0.026512
1.33787
-0.0332391
1.60122
-0.0405156
1.89742
-0.0478538
2.24998
-0.0545127
2.67173
-0.0589191
3.17644
-0.0587706
3.15506
-0.0553483
2.62233
-0.0507476
2.18985
-0.0456358
1.83602
-0.0396833
1.54049
-0.0321122
1.27575
-0.0216735
0.995885
-0.0107981
0.66846
-0.00325313
0.339324
0.0874013
-0.00510867
0.130608
-0.01473
0.425223
-0.0232857
0.761363
-0.0294484
1.07463
-0.0357499
1.34417
-0.0432904
1.60876
-0.051615
1.90575
-0.0603266
2.25869
-0.0679805
2.67938
-0.0726499
3.1811
-0.0718476
3.15426
-0.0673797
2.61787
-0.0606214
2.18309
-0.053295
1.8287
-0.0456773
1.53287
-0.036934
1.26701
-0.025386
0.984337
-0.013132
0.656206
-0.00396371
0.330156
0.0834376
-0.00627949
0.136887
-0.017936
0.43688
-0.0290882
0.772515
-0.037638
1.08318
-0.0458647
1.3524
-0.0552654
1.61816
-0.0656067
1.91609
-0.0761131
2.2692
-0.0853643
2.68863
-0.0907729
3.18651
-0.0891345
3.15262
-0.0829425
2.61167
-0.0746978
2.17485
-0.0658409
1.81984
-0.0559915
1.52302
-0.0444358
1.25545
-0.030193
0.970094
-0.0159244
0.641937
-0.00489071
0.319122
0.0785469
-0.00849509
0.145383
-0.023918
0.452303
-0.0384393
0.787037
-0.0492127
1.09396
-0.0590055
1.36219
-0.0703559
1.62951
-0.0828369
1.92857
-0.095559
2.28192
-0.106323
2.6994
-0.111718
3.19191
-0.109226
3.15013
-0.101685
2.60413
-0.0912304
2.1644
-0.0795909
1.8082
-0.0670474
1.51048
-0.0526936
1.2411
-0.0361078
0.953508
-0.0192945
0.625124
-0.00586252
0.30569
0.0726844
-0.0104908
0.155873
-0.0296606
0.471473
-0.0483911
0.805767
-0.0628129
1.10838
-0.0756936
1.37507
-0.0899047
1.64373
-0.105454
1.94412
-0.120663
2.29713
-0.132667
2.7114
-0.137951
3.19719
-0.13412
3.1463
-0.124011
2.59402
-0.111067
2.15145
-0.0967329
1.79387
-0.081164
1.49491
-0.0630613
1.223
-0.0426239
0.933071
-0.0226632
0.605164
-0.00683613
0.289863
0.0658483
-0.0150315
0.170905
-0.0409491
0.49739
-0.0649591
0.829777
-0.0831624
1.12658
-0.0990225
1.39093
-0.116674
1.66138
-0.135309
1.96275
-0.152664
2.31449
-0.165601
2.72434
-0.169899
3.20149
-0.163003
3.1394
-0.149878
2.5809
-0.133674
2.13525
-0.115354
1.77555
-0.0955613
1.47511
-0.0737864
1.20122
-0.0503851
0.90967
-0.027035
0.581813
-0.00796367
0.270792
0.0578846
-0.0190006
0.189905
-0.0526933
0.531083
-0.0847421
0.861826
-0.109445
1.15129
-0.131434
1.41292
-0.153651
1.68359
-0.175153
1.98426
-0.193708
2.33304
-0.205719
2.73635
-0.206954
3.20272
-0.196635
3.12908
-0.179704
2.56397
-0.159503
2.11505
-0.137684
1.75373
-0.114402
1.45183
-0.0886109
1.17543
-0.0601299
0.881188
-0.0316024
0.553286
-0.00903195
0.248222
0.0488526
-0.0329454
0.222851
-0.0788316
0.576969
-0.119314
0.902308
-0.150416
1.18239
-0.177818
1.44032
-0.203767
1.70954
-0.22707
2.00756
-0.245231
2.3512
-0.255036
2.74616
-0.252435
3.20012
-0.236077
3.11273
-0.213228
2.54112
-0.188108
2.08993
-0.16141
1.72703
-0.133323
1.42375
-0.103135
1.14524
-0.0705262
0.84858
-0.0373022
0.520062
-0.0103364
0.221256
0.0385162
-0.0471345
0.269985
-0.11627
0.646105
-0.17179
0.957829
-0.210341
1.22094
-0.243543
1.47353
-0.271734
1.73773
-0.294181
2.03001
-0.30901
2.36603
-0.312719
2.74987
-0.301618
3.18902
-0.277938
3.08905
-0.249991
2.51317
-0.220243
2.06018
-0.189865
1.69665
-0.158578
1.39246
-0.124011
1.11067
-0.0843511
0.80892
-0.0417859
0.477497
-0.0102265
0.189696
0.0282897
-0.0324924
0.302478
-0.0905718
0.704184
-0.142056
1.00931
-0.185812
1.26469
-0.226802
1.51452
-0.262679
1.77361
-0.296761
2.06409
-0.326369
2.39564
-0.34754
2.77104
-0.354208
3.19569
-0.340935
3.07577
-0.312642
2.48488
-0.275656
2.02319
-0.232993
1.65399
-0.187028
1.34649
-0.137907
1.06155
-0.0845969
0.755609
-0.036077
0.428977
-0.00788166
0.161501
0.020408
-0.0106095
0.313087
-0.0408744
0.734449
-0.0786194
1.04706
-0.115223
1.3013
-0.150793
1.55009
-0.18468
1.8075
-0.215959
2.09537
-0.241787
2.42147
-0.25805
2.7873
-0.257745
3.19539
-0.236053
3.05408
-0.203316
2.45214
-0.16628
1.98616
-0.127796
1.61551
-0.0883488
1.30705
-0.0499356
1.02314
-0.0187493
0.724423
-0.0013757
0.411603
0.00166035
0.158465
0.0220684
0.00259229
0.310495
-0.0187204
0.755762
-0.046295
1.07463
-0.0752911
1.33029
-0.104693
1.57949
-0.133884
1.83669
-0.161232
2.12272
-0.183517
2.44375
-0.196534
2.80032
-0.194041
3.19289
-0.174526
3.03457
-0.145557
2.42317
-0.11022
1.95082
-0.0719955
1.57728
-0.0358723
1.27092
-0.00590514
0.993173
0.0132113
0.705307
0.015104
0.409711
0.00620087
0.167368
0.0282693
0.00271687
0.307778
-0.00831695
0.766796
-0.0287072
1.09502
-0.0527757
1.35436
-0.0774015
1.60411
-0.102137
1.86142
-0.125418
2.146
-0.144256
2.46259
-0.154525
2.81058
-0.150113
3.18848
-0.129695
3.01415
-0.0996768
2.39316
-0.06648
1.91762
-0.0356171
1.54642
-0.00929826
1.2446
0.0107659
0.973109
0.0210651
0.695007
0.0182462
0.41253
0.00683019
0.178784
0.0350995
0.00502933
0.302749
-0.00269618
0.774521
-0.0203462
1.11267
-0.0404951
1.37451
-0.0614033
1.62502
-0.0827418
1.88276
-0.103001
2.16626
-0.119648
2.47924
-0.12895
2.81989
-0.125663
3.18519
-0.107506
2.99599
-0.0824722
2.36812
-0.0571269
1.89228
-0.0321067
1.5214
-0.00734285
1.21984
0.0120682
0.953698
0.0198705
0.687205
0.015409
0.416991
0.00528997
0.188903
0.0403894
0.00585363
0.296895
0.000537688
0.779837
-0.015022
1.12823
-0.0334275
1.39292
-0.052308
1.6439
-0.0713918
1.90185
-0.0896298
2.18449
-0.104775
2.49438
-0.112965
2.82808
-0.109156
3.18138
-0.0923809
2.97921
-0.0711349
2.34688
-0.0470007
1.86814
-0.0221338
1.49653
-0.00198104
1.19969
0.0113439
0.940373
0.0169325
0.681616
0.011974
0.42195
0.00383996
0.197037
0.0442294
0.00386239
0.293033
-6.45921e-05
0.783764
-0.0135789
1.14175
-0.030174
1.40951
-0.0475168
1.66124
-0.0650667
1.9194
-0.0820321
2.20146
-0.0963789
2.50873
-0.104936
2.83663
-0.103842
3.18029
-0.0906471
2.96602
-0.0698466
2.32608
-0.0473903
1.84569
-0.0282664
1.47741
-0.0110022
1.18242
0.00252506
0.926846
0.00738319
0.676758
0.00642711
0.422906
0.00229952
0.201165
0.0465289
0.00259189
0.290441
-0.000689185
0.787045
-0.0128488
1.15391
-0.028426
1.42509
-0.0450849
1.6779
-0.0618248
1.93614
-0.078039
2.21767
-0.0920795
2.52277
-0.100865
2.84542
-0.0991457
3.17857
-0.085707
2.95258
-0.0685345
2.3089
-0.0510471
1.8282
-0.0326713
1.45903
-0.0174033
1.16716
-0.00642612
0.915869
-0.000840352
0.671172
-0.00114591
0.423211
-0.000341146
0.20036
0.0461878
-0.000225164
0.290666
-0.00379386
0.790614
-0.0143838
1.1645
-0.0286101
1.43932
-0.044243
1.69354
-0.0603172
1.95221
-0.0762338
2.23359
-0.0905357
2.53707
-0.100398
2.85528
-0.102167
3.18034
-0.0924181
2.94283
-0.0748294
2.29131
-0.0555343
1.80891
-0.0401425
1.44364
-0.0260945
1.15311
-0.0160876
0.905862
-0.00966267
0.664748
-0.00510146
0.41865
-0.00156371
0.196822
0.0446241
-0.000614439
0.29128
-0.00545186
0.795451
-0.0157062
1.17475
-0.0288802
1.45249
-0.0440055
1.70866
-0.0598367
1.96804
-0.0758114
2.24956
-0.0905632
2.55182
-0.101494
2.86621
-0.10397
3.18282
-0.0937132
2.93257
-0.079089
2.27669
-0.0637016
1.79352
-0.046196
1.42613
-0.0327639
1.13968
-0.0210909
0.894189
-0.0129703
0.656627
-0.00764633
0.413326
-0.00233212
0.191508
0.0422919
-0.00258105
0.293861
-0.0080267
0.800897
-0.0175922
1.18432
-0.0299591
1.46486
-0.0442821
1.72298
-0.0597596
1.98352
-0.0758164
2.26562
-0.0910786
2.56709
-0.103041
2.87817
-0.107451
3.18723
-0.101199
2.92632
-0.0866385
2.26213
-0.0692346
1.77611
-0.0546974
1.4116
-0.040593
1.12557
-0.0293921
0.882988
-0.0195568
0.646792
-0.00965082
0.40342
-0.00297112
0.184828
0.0393208
-0.00389681
0.297758
-0.00935849
0.806358
-0.0187082
1.19367
-0.0307011
1.47685
-0.0445651
1.73685
-0.0597666
1.99872
-0.0759547
2.28181
-0.0918439
2.58297
-0.105412
2.89174
-0.113225
3.19504
-0.109084
2.92218
-0.0958202
2.24887
-0.0795343
1.75983
-0.0620015
1.39406
-0.0465676
1.11014
-0.0325271
0.868948
-0.0209202
0.635185
-0.0113507
0.393851
-0.00336609
0.176844
0.0359547
-0.00443872
0.302197
-0.0107945
0.812714
-0.0200081
1.20288
-0.0315148
1.48836
-0.0448415
1.75018
-0.059736
2.01361
-0.0760479
2.29812
-0.0928118
2.59974
-0.108241
2.90717
-0.118542
3.20534
-0.11671
2.92035
-0.105414
2.23757
-0.086939
1.74135
-0.0690401
1.37616
-0.0525994
1.0937
-0.0394539
0.855802
-0.0264274
0.622158
-0.0124985
0.379922
-0.00351699
0.167862
0.0324377
-0.00447416
0.306671
-0.0112492
0.819489
-0.0205349
1.21216
-0.0318431
1.49966
-0.0448819
1.76321
-0.0595375
2.02827
-0.0758837
2.31447
-0.093077
2.61693
-0.109207
2.9233
-0.120965
3.2171
-0.122201
2.92159
-0.111552
2.22692
-0.0964511
1.72625
-0.0765184
1.35623
-0.0583934
1.07557
-0.0410946
0.838503
-0.0257996
0.606863
-0.0131425
0.367265
-0.00344835
0.158168
0.0289894
-0.00453256
0.311204
-0.0118068
0.826764
-0.0209581
1.22132
-0.0319376
1.51064
-0.0446566
1.77593
-0.0590939
2.04271
-0.0754468
2.33082
-0.0933524
2.63484
-0.111879
2.94183
-0.12785
3.23307
-0.132533
2.92627
-0.124118
2.21851
-0.104992
1.70713
-0.0842991
1.33554
-0.0629404
1.05421
-0.04571
0.821273
-0.0300746
0.591228
-0.0133524
0.350542
-0.00311588
0.147931
0.0258735
-0.00452272
0.315726
-0.0118013
0.834042
-0.0208239
1.23034
-0.0316247
1.52144
-0.0441305
1.78844
-0.0583501
2.05693
-0.074714
2.34718
-0.0929106
2.65303
-0.111584
2.9605
-0.127332
3.24882
-0.134875
2.93381
-0.12994
2.21357
-0.11637
1.69356
-0.0932567
1.31243
-0.0686004
1.02956
-0.0435031
0.796176
-0.0234484
0.571173
-0.0107818
0.337876
-0.0023028
0.139453
0.0235707
-0.00456326
0.32029
-0.0119144
0.841393
-0.0206425
1.23907
-0.0310716
1.53187
-0.0432531
1.80062
-0.0572747
2.07095
-0.0735846
2.36349
-0.0920874
2.67154
-0.112503
2.98092
-0.133575
3.26989
-0.14573
2.94597
-0.141849
2.20969
-0.124389
1.6761
-0.101627
1.28966
-0.0721707
1.0001
-0.0454917
0.769497
-0.0220288
0.54771
-0.00663694
0.322484
-0.00234813
0.135164
0.0212226
-0.00447949
0.324769
-0.0116143
0.848528
-0.0200978
1.24755
-0.0302566
1.54203
-0.0421487
1.81251
-0.0558961
2.0847
-0.0720506
2.37965
-0.0907427
2.69023
-0.11141
3.00158
-0.131335
3.28981
-0.144105
2.95874
-0.147166
2.21275
-0.138414
1.66734
-0.113252
1.2645
-0.0798543
0.966702
-0.0377987
0.727441
0.00199633
0.507915
0.0230395
0.301441
0.02149
0.136713
0.0427126
-0.00436531
0.329134
-0.0114146
0.855577
-0.0195657
1.2557
-0.029289
1.55176
-0.0407476
1.82397
-0.0541814
2.09813
-0.0701731
2.39564
-0.0889147
2.70897
-0.110622
3.02329
-0.134755
3.31395
-0.153134
2.97712
-0.15836
2.21798
-0.146696
1.65568
-0.124331
1.24214
-0.085996
0.928367
-0.0407271
0.682172
0.0124737
0.454714
0.035521
0.278394
0.0156755
0.156559
0.0583881
-0.00413959
0.333274
-0.0109011
0.862339
-0.0187657
1.26357
-0.0281387
1.56113
-0.0392498
1.83508
-0.0523225
2.1112
-0.0680469
2.41136
-0.0868053
2.72773
-0.10871
3.0452
-0.132392
3.33763
-0.150707
2.99543
-0.160788
2.22806
-0.1615
1.65639
-0.141164
1.2218
-0.103912
0.891115
-0.0365825
0.614843
0.0654647
0.352667
0.164738
0.17912
0.173035
0.148262
0.231423
-0.0039872
0.337261
-0.0107079
0.86906
-0.0184505
1.27131
-0.0277219
1.5704
-0.0389213
1.84628
-0.0524017
2.12468
-0.0689984
2.42796
-0.0892465
2.74798
-0.113979
3.06993
-0.143931
3.36758
-0.171528
3.02303
-0.187368
2.2439
-0.185916
1.65494
-0.17153
1.20741
-0.133793
0.853378
-0.0899761
0.571026
-0.114282
0.376973
-0.364232
0.42907
-0.927279
0.711309
0.894068
-1.58992
-0.0037723
0.341033
-0.0102058
0.875493
-0.017751
1.27885
-0.0268683
1.57952
-0.03795
1.85736
-0.0514714
2.1382
-0.0683813
2.44487
-0.0895285
2.76912
-0.115984
3.09638
-0.147624
3.39922
-0.176885
3.05229
-0.199334
2.26635
-0.220468
1.67608
-0.223147
1.21009
-0.216509
0.84674
-0.295269
0.649785
-0.688796
0.770501
-1.41124
1.15151
-2.02513
1.3252
1.21993
-2.35099
-0.00357827
0.344612
-0.00978755
0.881702
-0.0170551
1.28612
-0.0259004
1.58836
-0.0367823
1.86825
-0.050326
2.15175
-0.0675655
2.46211
-0.0894961
2.79105
-0.117664
3.12455
-0.154352
3.43591
-0.193737
3.09167
-0.225998
2.29861
-0.245755
1.69583
-0.253813
1.21815
-0.341873
0.9348
-0.746849
1.05476
-1.51024
1.5339
-2.09179
1.73306
-2.33575
1.56916
1.33626
-2.45208
-0.00333355
0.347945
-0.0091511
0.88752
-0.0161456
1.29312
-0.0247773
1.59699
-0.035481
1.87895
-0.0489925
2.16526
-0.066421
2.47954
-0.0890594
2.81369
-0.118886
3.15438
-0.157945
3.47497
-0.199077
3.1328
-0.236419
2.33595
-0.280021
1.73943
-0.372707
1.31084
-0.697594
1.25969
-1.41405
1.77122
-2.01228
2.13212
-2.25594
1.97673
-2.37147
1.68469
1.40265
-2.43787
-0.00308225
0.351028
-0.00856084
0.892999
-0.0152008
1.29976
-0.023501
1.60529
-0.0340151
1.88946
-0.0474695
2.17871
-0.0650804
2.49715
-0.0883169
2.83693
-0.119574
3.18564
-0.162965
3.51836
-0.215286
3.18513
-0.268203
2.38887
-0.318375
1.78961
-0.492336
1.4848
-1.074
1.84135
-1.76509
2.46231
-2.09762
2.46465
-2.25033
2.12943
-2.3344
1.76876
1.4689
-2.40065
-0.00295974
0.353987
-0.00826181
0.898301
-0.0148835
1.30638
-0.0232471
1.61366
-0.0339986
1.90021
-0.0476746
2.19239
-0.0657009
2.51518
-0.0897754
2.861
-0.122774
3.21863
-0.169057
3.56464
-0.223613
3.23968
-0.276441
2.4417
-0.374525
1.88769
-0.749773
1.86005
-1.4692
2.56078
-1.95499
2.9481
-2.15853
2.66819
-2.26672
2.23763
-2.3443
1.84634
1.53377
-2.40916
-0.00300708
0.356994
-0.00859696
0.90389
-0.0155326
1.31331
-0.0242654
1.62239
-0.0354824
1.91143
-0.0497794
2.20669
-0.0686397
2.53404
-0.0938612
2.88623
-0.128564
3.25334
-0.17855
3.61463
-0.241172
3.3023
-0.31352
2.51405
-0.498922
2.07309
-1.02844
2.38957
-1.65823
3.19057
-1.94584
3.23571
-2.096
2.81835
-2.21223
2.35385
-2.30689
1.94099
1.59715
-2.37027
-0.00298621
0.359981
-0.00874257
0.909647
-0.0161035
1.32067
-0.0253522
1.63164
-0.0370824
1.92316
-0.0519891
2.22159
-0.0716261
2.55367
-0.0980164
2.91262
-0.134595
3.28992
-0.187732
3.66777
-0.253169
3.36774
-0.342292
2.60317
-0.615566
2.34637
-1.24102
3.01502
-1.74155
3.69111
-1.95283
3.44699
-2.09742
2.96294
-2.22481
2.48125
-2.33937
2.05555
1.65762
-2.39984
-0.0029037
0.362884
-0.00900586
0.915749
-0.0167491
1.32842
-0.0264304
1.64132
-0.0386621
1.93539
-0.0542481
2.23718
-0.0747709
2.5742
-0.102301
2.94015
-0.140528
3.32814
-0.196025
3.72326
-0.267777
3.43949
-0.393561
2.72895
-0.762343
2.71515
-1.38645
3.63912
-1.75335
4.05801
-1.93174
3.62538
-2.03919
3.07039
-2.13316
2.57522
-2.2048
2.1272
1.65196
-2.19914
-0.00276865
0.365653
-0.00894391
0.921924
-0.0171756
1.33665
-0.0274539
1.6516
-0.0402765
1.94822
-0.0564943
2.2534
-0.0777843
2.59549
-0.106478
2.96884
-0.146346
3.36801
-0.204527
3.78144
-0.285793
3.52076
-0.451052
2.89421
-0.886617
3.15071
-1.44234
4.19485
-1.71333
4.32899
-1.87421
3.78626
-1.97259
3.16877
-1.97926
2.58188
-1.91827
2.06622
1.62948
-1.8958
-0.00244689
0.3681
-0.00899258
0.92847
-0.0175379
1.34519
-0.0281611
1.66222
-0.0413737
1.96143
-0.0580099
2.27003
-0.0797027
2.61718
-0.108611
2.99775
-0.148747
3.40815
-0.205317
3.83801
-0.290489
3.60593
-0.487595
3.09132
-0.957074
3.62019
-1.40709
4.64486
-1.58542
4.50732
-1.65961
3.86045
-1.66897
3.17812
-1.5266
2.43952
-1.03104
1.57066
0.598437
-0.00201167
0.370112
-0.00848978
0.934948
-0.0175657
1.35427
-0.0289747
1.67363
-0.0431454
1.9756
-0.0609325
2.28782
-0.0842236
2.64047
-0.115638
3.02916
-0.159274
3.45178
-0.223061
3.9018
-0.326392
3.70926
-0.571414
3.33634
-1.09319
4.14196
-1.46442
5.01609
-1.56645
4.60935
-1.5719
3.8659
-1.47531
3.08153
-1.23835
2.20255
-0.649343
0.981659
-0.0509057
-0.00155624
0.371668
-0.00797288
0.941365
-0.0172882
1.36359
-0.0292293
1.68557
-0.044229
1.9906
-0.0632739
2.30687
-0.0883518
2.66555
-0.122089
3.0629
-0.169925
3.49962
-0.238725
3.9706
-0.356307
3.82684
-0.652041
3.63207
-1.19793
4.68786
-1.48093
5.29909
-1.55115
4.67958
-1.53524
3.84999
-1.33504
2.88133
-0.803367
1.67088
-0.119585
0.297876
-0.17049
-0.00078225
0.37245
-0.006654
0.947236
-0.0163842
1.37332
-0.0291218
1.69831
-0.0449421
2.00642
-0.0650086
2.32693
-0.0915313
2.69207
-0.127711
3.09908
-0.178479
3.55039
-0.254639
4.04676
-0.397211
3.96942
-0.749287
3.98415
-1.28311
5.22168
-1.47364
5.48962
-1.50357
4.70951
-1.42102
3.76744
-1.1186
2.57891
-0.335254
0.887533
0.0325971
-0.0699748
-0.137893
0.000104147
0.372346
-0.00492331
0.952264
-0.0146515
1.38304
-0.0278131
1.71147
-0.0442612
2.02287
-0.0654779
2.34815
-0.0936378
2.72023
-0.131693
3.13713
-0.18527
3.60396
-0.269435
4.13092
-0.433004
4.13299
-0.834916
4.38606
-1.31296
5.69972
-1.4393
5.61596
-1.45044
4.72065
-1.25301
3.57001
-0.722318
2.04822
-0.070269
0.235485
0.0359373
-0.176181
-0.101956
0.00199904
0.370347
-0.00153995
0.955803
-0.011908
1.39341
-0.0258694
1.72543
-0.0427759
2.03977
-0.0647011
2.37007
-0.0938637
2.74939
-0.13358
3.17685
-0.18895
3.65933
-0.279247
4.22122
-0.468257
4.322
-0.922443
4.84025
-1.31731
6.09459
-1.39194
5.69059
-1.35708
4.68578
-1.07549
3.28842
-0.361082
1.33381
-0.0167995
-0.108798
0.00765042
-0.200631
-0.0943053
0.00372452
0.366622
0.0016701
0.957857
-0.00808674
1.40317
-0.0216215
1.73897
-0.0387396
2.05689
-0.061527
2.39286
-0.0916672
2.77953
-0.132388
3.21757
-0.190055
3.717
-0.288377
4.31954
-0.495731
4.52935
-0.969017
5.31353
-1.26145
6.38703
-1.30154
5.73068
-1.1968
4.58104
-0.827978
2.9196
-0.113376
0.619206
0.034288
-0.256463
0.0196491
-0.185992
-0.0746563
0.00595596
0.360666
0.00555183
0.958261
-0.00281763
1.41154
-0.016191
1.75234
-0.0333379
2.07404
-0.0561152
2.41564
-0.0863822
2.8098
-0.127463
3.25865
-0.185257
3.7748
-0.286078
4.42037
-0.510179
4.75345
-0.982144
5.7855
-1.19441
6.5993
-1.21519
5.75146
-1.03411
4.39996
-0.517051
2.40254
-0.00347874
0.105633
0.0198942
-0.279836
0.0176706
-0.183769
-0.0569857
0.00875789
0.351908
0.0113218
0.955698
0.00526869
1.41759
-0.00657011
1.76418
-0.0239525
2.09142
-0.0468141
2.4385
-0.0765116
2.8395
-0.116982
3.29912
-0.174811
3.83262
-0.281346
4.5269
-0.51764
4.98974
-0.947423
6.21528
-1.08653
6.73841
-1.07378
5.7387
-0.839865
4.16604
-0.302957
1.86564
-0.0503575
-0.146966
-0.0275825
-0.302611
-0.00389606
-0.207455
-0.0608817
0.0128095
0.339099
0.0194026
0.949104
0.0152378
1.42176
0.0045903
1.77483
-0.0123138
2.10833
-0.0333665
2.45955
-0.0615623
2.86769
-0.099875
3.33744
-0.154693
3.88744
-0.258831
4.63104
-0.488164
5.21908
-0.861272
6.58839
-0.958999
6.83614
-0.946296
5.726
-0.704172
3.92392
-0.154795
1.31626
-0.0495647
-0.252196
-0.0256009
-0.326574
-0.00126576
-0.23179
-0.0621475
0.0178427
0.321256
0.0299997
0.936947
0.0296474
1.42211
0.0206547
1.78382
0.00584956
2.12313
-0.0130535
2.47846
-0.0389851
2.89363
-0.0744502
3.3729
-0.124811
3.9378
-0.223177
4.7294
-0.438203
5.4341
-0.720317
6.8705
-0.788402
6.90422
-0.728386
5.66598
-0.434245
3.62978
0.026996
0.855019
0.0171641
-0.242365
0.0144941
-0.323904
0.0321061
-0.249402
-0.0300413
0.0241841
0.297072
0.0433231
0.917808
0.0470973
1.41833
0.0409402
1.78998
0.0297672
2.1343
0.0133878
2.49484
-0.00889692
2.91591
-0.0387196
3.40272
-0.0814796
3.98056
-0.163708
4.81163
-0.339127
5.60952
-0.527008
7.05838
-0.606981
6.98419
-0.607886
5.66688
-0.402714
3.42461
-0.155373
0.607679
-0.185013
-0.212724
-0.10071
-0.408207
-0.00750129
-0.342611
-0.0375426
0.0316416
0.265431
0.0604301
0.88902
0.0716724
1.40709
0.0701821
1.79147
0.0622261
2.14226
0.0496055
2.50746
0.0324812
2.93304
0.00987943
3.42533
-0.0241907
4.01463
-0.0747165
4.86216
-0.187558
5.72237
-0.299228
7.17005
-0.382324
7.06729
-0.485596
5.77016
-0.527605
3.46662
-0.638669
0.718742
-0.659704
-0.191689
-0.464825
-0.603086
-0.230795
-0.576641
-0.268338
0.0401567
0.225274
0.0806238
0.848553
0.0999164
1.3878
0.104291
1.78709
0.101803
2.14475
0.0941252
2.51513
0.0849333
2.94223
0.071794
3.43846
0.0551215
4.03131
0.0387295
4.87855
0.0359681
5.72513
0.0244395
7.18158
-0.0221833
7.11391
-0.130963
5.87894
-0.36894
3.70459
-0.741197
1.091
-0.794025
-0.138861
-0.616609
-0.780503
-0.34451
-0.84874
-0.612847
0.0484376
0.176836
0.105055
0.791936
0.13753
1.35532
0.149622
1.775
0.153312
2.14106
0.151266
2.51718
0.150034
2.94346
0.150318
3.43818
0.159363
4.02226
0.179461
4.85845
0.289523
5.61506
0.461926
7.00918
0.572511
7.00333
0.676843
5.77461
0.477774
3.90366
-0.039019
1.60779
-0.39518
0.2173
-0.517532
-0.658151
-0.290333
-1.07594
-0.90318
0.0530084
0.123828
0.129422
0.715522
0.177972
1.30677
0.20099
1.75198
0.213316
2.12873
0.219127
2.51137
0.228274
2.93431
0.242987
3.42347
0.276539
3.98871
0.349752
4.78524
0.586035
5.37878
1.07664
6.51857
1.48188
6.59809
1.88043
5.37606
1.85223
3.93186
1.2848
2.17523
0.762045
0.740055
0.282946
-0.179052
0.0656753
-0.858669
-0.837505
0.048884
0.0749438
0.154138
0.610268
0.228104
1.23281
0.265461
1.71462
0.286743
2.10745
0.300294
2.49782
0.319461
2.91514
0.34749
3.39544
0.407125
3.92907
0.538589
4.65378
0.871807
5.04556
1.57008
5.8203
2.00149
6.16667
2.28153
5.09601
2.3062
3.90719
1.90846
2.57297
1.41403
1.23449
0.93949
0.295484
0.376889
-0.296067
-0.460616
0.0377384
0.0372054
0.175262
0.472745
0.278249
1.12982
0.335457
1.65742
0.368232
2.07467
0.392847
2.4732
0.419684
2.88831
0.460132
3.35499
0.529042
3.86016
0.679071
4.50375
1.02007
4.70456
1.73561
5.10475
2.12633
5.77595
2.35168
4.87066
2.38791
3.87097
2.10653
2.85435
1.56828
1.77274
0.984356
0.879405
0.413277
0.275012
-0.0473394
0.028743
0.00846241
0.198288
0.3032
0.337569
0.990541
0.418555
1.57643
0.462178
2.03105
0.496126
2.43926
0.525176
2.85926
0.569084
3.31108
0.629453
3.79979
0.751477
4.38172
0.978715
4.47733
1.54925
4.53422
1.9384
5.3868
2.04943
4.75963
2.01888
3.90152
1.80398
3.06924
1.36961
2.20711
0.872178
1.37684
0.377416
0.769774
0.330077
0.0300758
-0.0216134
0.194962
0.138314
0.394685
0.790818
0.507347
1.46377
0.564834
1.97356
0.608033
2.39606
0.638823
2.82847
0.672992
3.27691
0.706316
3.76647
0.780059
4.30798
0.897239
4.36015
1.24749
4.18397
1.65471
4.97958
1.69615
4.71819
1.60907
3.98859
1.41653
3.26178
1.08301
2.54063
0.661854
1.798
0.265196
1.16643
0.595273
0.0342987
-0.0559121
0.13867
0.033942
0.34848
0.581008
0.486728
1.32552
0.549608
1.91068
0.576652
2.36901
0.586517
2.8186
0.585424
3.27801
0.575986
3.77591
0.568205
4.31576
0.57761
4.35074
0.703566
4.05801
0.903485
4.77966
0.904242
4.71744
0.817492
4.07535
0.701002
3.37827
0.53788
2.70375
0.326812
2.00907
0.123567
1.36968
0.718839
0.0222707
-0.0781828
0.059549
-0.00333633
0.176949
0.463609
0.291556
1.21091
0.364575
1.83766
0.404661
2.32893
0.428001
2.79526
0.4416
3.26441
0.443114
3.77439
0.433242
4.32563
0.419476
4.36451
0.476296
4.00119
0.619179
4.63678
0.625513
4.7111
0.557693
4.14317
0.462678
3.47328
0.342533
2.8239
0.194338
2.15726
0.0606249
1.50339
0.779464
0.0100566
-0.0882394
0.0069224
-0.000202123
0.0453189
0.425212
0.118034
1.1382
0.184706
1.77099
0.236682
2.27695
0.277295
2.75465
0.306578
3.23512
0.317946
3.76303
0.315131
4.32845
0.297656
4.38198
0.315638
3.98321
0.407105
4.54531
0.411731
4.70648
0.35732
4.19758
0.275427
3.55518
0.182766
2.91656
0.0867429
2.25328
0.00568942
1.58444
0.785154
-0.00921777
-0.0790216
-0.0413426
0.0319227
-0.0548392
0.438709
-0.0186838
1.10204
0.0383921
1.71392
0.0959121
2.21943
0.148537
2.70202
0.186023
3.19764
0.210342
3.73871
0.219587
4.3192
0.204818
4.39675
0.208402
3.97963
0.254647
4.49907
0.246044
4.71508
0.199922
4.2437
0.140998
3.6141
0.079445
2.97811
0.0207041
2.31203
-0.0214099
1.62656
0.763744
-0.0271763
-0.0518453
-0.0805391
0.0852855
-0.120107
0.478277
-0.113067
1.095
-0.0643321
1.66518
-0.00448133
2.15958
0.0514924
2.64605
0.0955242
3.15361
0.13074
3.70349
0.14523