/*--------------------------------*- C++ -*----------------------------------*\
| =========                 |                                                 |
| \\      /  F ield         | OpenFOAM: The Open Source CFD Toolbox           |
|  \\    /   O peration     | Version:  v2012                                 |
|   \\  /    A nd           | Website:  www.openfoam.com                      |
|    \\/     M anipulation  |                                                 |
\*---------------------------------------------------------------------------*/
FoamFile
{
    version     2.0;
    format      ascii;
    class       volScalarField;
    location    "61";
    object      p;
}
// * * * * * * * * * * * * * * * * * * * * * * * * * * * * * * * * * * * * * //

dimensions      [0 2 -2 0 0 0 0];


internalField   nonuniform List<scalar> 
2200
(
0.77348
0.751981
0.736075
0.720408
0.7058
0.693286
0.682936
0.674845
0.669156
0.666227
0.666745
0.670582
0.676929
0.685494
0.696181
0.708955
0.723749
0.739681
0.755726
0.777224
0.705888
0.70263
0.699707
0.695594
0.690138
0.683671
0.677062
0.67112
0.666627
0.664262
0.664745
0.66809
0.673292
0.679768
0.686765
0.693524
0.699191
0.703286
0.706133
0.709496
0.665961
0.666182
0.668243
0.669591
0.669984
0.669138
0.667168
0.664505
0.661982
0.660518
0.66109
0.66356
0.666862
0.670101
0.672442
0.673443
0.673176
0.672188
0.670556
0.670306
0.643471
0.644923
0.647521
0.649976
0.652423
0.654449
0.655611
0.655856
0.655506
0.655246
0.655927
0.657329
0.658542
0.658948
0.658275
0.656606
0.654447
0.652257
0.649642
0.648238
0.629096
0.631068
0.633889
0.636731
0.6396
0.642442
0.644913
0.646789
0.648038
0.648871
0.649635
0.650131
0.649921
0.648833
0.64699
0.644635
0.642096
0.639369
0.636569
0.634647
0.621729
0.623327
0.625534
0.628072
0.630748
0.633427
0.636037
0.638482
0.640529
0.642067
0.642975
0.643037
0.642233
0.640743
0.638863
0.636732
0.634417
0.632079
0.629983
0.628408
0.618297
0.61932
0.620592
0.622461
0.62461
0.626788
0.628997
0.63131
0.633562
0.635451
0.636523
0.636587
0.635848
0.634675
0.633304
0.631761
0.630069
0.628497
0.627386
0.62637
0.615604
0.616273
0.616909
0.618217
0.619843
0.621547
0.623322
0.625274
0.627379
0.629396
0.630695
0.631047
0.630766
0.630174
0.629425
0.628503
0.627469
0.626554
0.626109
0.625432
0.612321
0.612765
0.613166
0.614168
0.615439
0.616837
0.618356
0.620058
0.621956
0.623976
0.625568
0.626415
0.626727
0.626716
0.626459
0.62601
0.625448
0.624925
0.624744
0.624279
0.608231
0.608527
0.608888
0.609763
0.610887
0.612177
0.613635
0.615278
0.617139
0.619239
0.621173
0.622566
0.623396
0.623812
0.623931
0.623819
0.623539
0.623229
0.623106
0.622782
0.603467
0.603669
0.604042
0.604878
0.605982
0.607307
0.608858
0.610635
0.612649
0.614959
0.617331
0.619226
0.62051
0.621287
0.621671
0.621792
0.621704
0.621544
0.621444
0.621204
0.598215
0.598361
0.598734
0.599548
0.6007
0.602145
0.603876
0.605901
0.608256
0.611
0.613891
0.616317
0.617991
0.619059
0.619677
0.619983
0.620091
0.620072
0.620008
0.619816
0.592521
0.59263
0.593012
0.59384
0.595077
0.59669
0.598676
0.601049
0.603872
0.607209
0.610743
0.613703
0.615797
0.617196
0.618088
0.618626
0.618942
0.619063
0.619039
0.61887
0.586437
0.586504
0.586888
0.587746
0.589098
0.5909
0.593162
0.595932
0.599316
0.603374
0.607695
0.611318
0.613917
0.615734
0.616997
0.617838
0.618391
0.618655
0.618671
0.61851
0.579816
0.579856
0.580281
0.581194
0.582686
0.584699
0.587256
0.590484
0.594528
0.599437
0.60467
0.609124
0.612404
0.614774
0.616496
0.617712
0.618516
0.618929
0.618993
0.618834
0.572568
0.572534
0.572956
0.573963
0.57566
0.577936
0.580862
0.584623
0.589429
0.595372
0.601745
0.607181
0.611288
0.614357
0.616658
0.618297
0.619396
0.619974
0.62009
0.619925
0.56438
0.564363
0.564824
0.565954
0.567913
0.57053
0.573942
0.578375
0.584081
0.591209
0.598918
0.605596
0.610718
0.6146
0.61753
0.61967
0.621109
0.621859
0.62203
0.621855
0.55516
0.555184
0.55563
0.556875
0.559128
0.562167
0.566195
0.571443
0.578219
0.58676
0.596145
0.604355
0.610693
0.615563
0.619235
0.621921
0.623739
0.624676
0.6249
0.624707
0.544419
0.544396
0.544947
0.546413
0.549038
0.552657
0.5575
0.563839
0.572036
0.582381
0.593707
0.603632
0.611375
0.617307
0.621798
0.625139
0.627379
0.628499
0.628772
0.628557
0.531672
0.531607
0.532282
0.53412
0.537308
0.541726
0.547659
0.555419
0.565425
0.577975
0.591638
0.603533
0.612789
0.619928
0.625374
0.629409
0.632121
0.633434
0.633742
0.633499
0.516632
0.516529
0.517303
0.519515
0.523446
0.528955
0.536359
0.546022
0.558385
0.573644
0.590019
0.604102
0.615063
0.623522
0.62998
0.634826
0.638015
0.639494
0.639828
0.639554
0.49827
0.498186
0.499202
0.501991
0.50693
0.513904
0.523277
0.535426
0.550763
0.569296
0.588742
0.605407
0.618236
0.628131
0.635756
0.641418
0.645084
0.646725
0.647054
0.646746
0.475662
0.475517
0.476821
0.480403
0.486807
0.495899
0.507993
0.523436
0.542458
0.564893
0.587916
0.607314
0.622187
0.633694
0.642543
0.649131
0.65327
0.655035
0.655328
0.65499
0.44643
0.446454
0.448554
0.453636
0.462384
0.474654
0.490616
0.510363
0.533869
0.560776
0.587771
0.610173
0.627258
0.640392
0.650528
0.657951
0.662453
0.664288
0.664513
0.664144
0.407876
0.408117
0.411654
0.419641
0.432447
0.449689
0.470929
0.496015
0.524769
0.556776
0.588166
0.613841
0.633232
0.648106
0.659475
0.66768
0.67244
0.674228
0.674356
0.673976
0.356621
0.357028
0.364023
0.377262
0.396479
0.420862
0.4491
0.480863
0.515882
0.553603
0.589636
0.618519
0.640225
0.656803
0.66944
0.67825
0.682902
0.684358
0.684324
0.684008
0.289284
0.292054
0.307159
0.328664
0.356814
0.390128
0.426547
0.465798
0.507733
0.551758
0.592847
0.625536
0.650027
0.668694
0.682689
0.692112
0.69657
0.697525
0.697453
0.69726
0.212772
0.222338
0.247557
0.278831
0.317159
0.359624
0.404311
0.451302
0.500521
0.551401
0.598314
0.635305
0.662851
0.683814
0.699485
0.709527
0.713701
0.714191
0.714201
0.714119
0.14445
0.159146
0.190666
0.230966
0.27895
0.330293
0.383075
0.437826
0.494377
0.551958
0.604467
0.645447
0.676165
0.699304
0.716232
0.726676
0.730685
0.73085
0.73095
0.73094
0.0925201
0.105676
0.142329
0.188727
0.24409
0.302988
0.363195
0.425195
0.488559
0.552312
0.609963
0.65521
0.688844
0.713971
0.732277
0.743382
0.747335
0.747987
0.748201
0.748179
0.0495178
0.0619927
0.102433
0.152703
0.213524
0.278408
0.345015
0.413378
0.482921
0.552845
0.616066
0.665125
0.701134
0.728191
0.747794
0.759358
0.764101
0.76502
0.765056
0.765122
0.0128442
0.0255306
0.0686317
0.121781
0.186949
0.256639
0.328643
0.4027
0.478144
0.554038
0.622165
0.674418
0.712976
0.741627
0.762652
0.774896
0.779842
0.78087
0.780931
0.781
-0.0191295
-0.00623558
0.0390125
0.0947451
0.163538
0.237248
0.313991
0.393152
0.473875
0.55481
0.627125
0.682917
0.723741
0.753978
0.776091
0.788805
0.794205
0.795345
0.795454
0.795505
-0.0474837
-0.0346002
0.0123075
0.0705076
0.142507
0.219765
0.30062
0.384115
0.469343
0.554922
0.631731
0.69082
0.733604
0.765038
0.78783
0.801274
0.806888
0.808207
0.808334
0.808372
-0.0733567
-0.0604579
-0.0122246
0.0483865
0.123189
0.20349
0.287859
0.3751
0.46446
0.554626
0.63575
0.697513
0.742225
0.774969
0.798141
0.812087
0.818052
0.819484
0.819652
0.819664
-0.0973286
-0.0842237
-0.035186
0.0276677
0.104927
0.187935
0.275402
0.366022
0.459258
0.553661
0.638767
0.703452
0.750076
0.783657
0.807287
0.821701
0.827738
0.829334
0.829492
0.829479
-0.119904
-0.106506
-0.0567559
0.00802925
0.0873746
0.172786
0.263045
0.35678
0.453601
0.551941
0.641012
0.708754
0.757052
0.791743
0.815714
0.830017
0.836293
0.83787
0.838044
0.837992
-0.141171
-0.127632
-0.0772157
-0.0108312
0.0703119
0.157925
0.25074
0.347314
0.447372
0.549398
0.642453
0.713398
0.763536
0.799176
0.823443
0.837594
0.843703
0.845241
0.845433
0.845303
-0.161421
-0.14782
-0.09673
-0.0289908
0.0536952
0.143265
0.238366
0.337464
0.440407
0.545924
0.643004
0.717395
0.769777
0.806594
0.830809
0.844403
0.850328
0.851746
0.851863
0.851742
-0.181039
-0.167084
-0.115498
-0.0466081
0.0374237
0.128729
0.225837
0.327161
0.432733
0.541643
0.642745
0.720798
0.775966
0.813959
0.838085
0.851111
0.856283
0.857495
0.857554
0.85747
-0.200331
-0.185697
-0.133655
-0.0637263
0.0214646
0.114245
0.213084
0.316418
0.424455
0.536544
0.641519
0.723578
0.781965
0.821909
0.84598
0.85784
0.86204
0.862619
0.862665
0.862642
-0.21916
-0.203781
-0.151326
-0.0804527
0.00574569
0.0998016
0.200153
0.305313
0.415614
0.530579
0.639334
0.725703
0.787859
0.830343
0.854968
0.865671
0.867757
0.867388
0.867269
0.867119
-0.237513
-0.221483
-0.168548
-0.0967798
-0.00970031
0.0854458
0.18711
0.293901
0.40624
0.523809
0.636123
0.726912
0.793403
0.839551
0.86578
0.875077
0.874537
0.872449
0.872132
0.873069
-0.25523
-0.238729
-0.185311
-0.112717
-0.024852
0.0712464
0.174042
0.282241
0.396369
0.516252
0.63175
0.726944
0.798476
0.849187
0.878625
0.887761
0.884465
0.877634
0.872724
0.871678
-0.272372
-0.255494
-0.201555
-0.12819
-0.0396291
0.0572756
0.161008
0.270393
0.386084
0.507989
0.626203
0.725555
0.802338
0.859039
0.893525
0.904716
0.901563
0.8905
0.890322
0.89447
-0.288866
-0.271646
-0.217213
-0.143166
-0.0539947
0.043588
0.148084
0.258446
0.375459
0.499047
0.619481
0.722519
0.804735
0.868002
0.909449
0.926005
0.923967
0.894627
0.856142
0.822485
-0.304716
-0.287227
-0.232309
-0.157684
-0.0680253
0.0300676
0.135121
0.246226
0.364265
0.489191
0.611429
0.717454
0.804473
0.875152
0.925784
0.950862
0.962943
0.938882
0.956272
1.01729
-0.319834
-0.302225
-0.246928
-0.171903
-0.0819219
0.0164829
0.121855
0.233398
0.352053
0.477871
0.601419
0.709514
0.800567
0.877458
0.934219
0.96423
0.968004
0.941647
0.898288
0.91483
-0.334227
-0.316666
-0.261034
-0.185757
-0.0955934
0.00293598
0.1084
0.220081
0.338951
0.465169
0.589409
0.698501
0.790848
0.870326
0.928326
0.958691
0.940453
0.882902
0.817378
0.804588
-0.347856
-0.330491
-0.274621
-0.199267
-0.109057
-0.0105772
0.0947725
0.206311
0.325001
0.45108
0.575239
0.683993
0.775016
0.850529
0.903293
0.907052
0.868697
0.788802
0.712795
0.688347
-0.360779
-0.343745
-0.287712
-0.212434
-0.122317
-0.0240605
0.0809737
0.192099
0.310232
0.435595
0.558815
0.665765
0.751672
0.815672
0.843639
0.828048
0.765847
0.662233
0.573573
0.549984
-0.373422
-0.356771
-0.30068
-0.225637
-0.135738
-0.0378299
0.0667396
0.177235
0.29448
0.418579
0.539923
0.643164
0.721744
0.769662
0.763711
0.726855
0.612375
0.488071
0.379379
0.350972
-0.386667
-0.370421
-0.314226
-0.23946
-0.149852
-0.0523481
0.0516665
0.161379
0.277472
0.399781
0.518251
0.61588
0.687178
0.71004
0.676237
0.585839
0.427961
0.273841
0.143243
0.11457
-0.40101
-0.384982
-0.328636
-0.254165
-0.164868
-0.0677572
0.0356689
0.144493
0.259216
0.379268
0.493807
0.584736
0.645189
0.639303
0.586924
0.435202
0.234474
0.0211163
-0.159579
-0.208972
-0.416601
-0.400683
-0.344006
-0.269736
-0.180725
-0.0840132
0.0187721
0.126599
0.23975
0.357063
0.466527
0.551252
0.596633
0.558815
0.471231
0.282633
0.051424
-0.237259
-0.557984
-0.70694
-0.433482
-0.417469
-0.360413
-0.286316
-0.197536
-0.101204
0.000905993
0.107641
0.219031
0.333245
0.436824
0.514755
0.542105
0.473976
0.337061
0.131821
-0.101481
-0.444488
-1.02935
-1.60022
-0.451784
-0.435611
-0.377986
-0.303913
-0.215272
-0.119303
-0.0178966
0.0876867
0.197216
0.308161
0.405784
0.475506
0.483716
0.399457
0.207919
-0.0248311
-0.226605
-0.459918
-1.01184
-2.51756
-0.471483
-0.454973
-0.396769
-0.322724
-0.234159
-0.138539
-0.0378775
0.0664626
0.17397
0.281476
0.37307
0.432942
0.420506
0.341041
0.114862
-0.121961
-0.268987
-0.30544
-0.293795
-0.679286
-0.492557
-0.475962
-0.417016
-0.342968
-0.254526
-0.159379
-0.059658
0.043198
0.148366
0.251855
0.337726
0.387023
0.358652
0.291153
0.0652803
-0.135645
-0.245685
-0.253253
-0.199919
-0.239872
-0.514852
-0.498139
-0.438626
-0.364802
-0.276548
-0.181997
-0.0834075
0.0177172
0.120186
0.219174
0.299928
0.339208
0.304248
0.237194
0.0332744
-0.125871
-0.207547
-0.215426
-0.263427
-0.267316
-0.538372
-0.52177
-0.461643
-0.388118
-0.300129
-0.20638
-0.109171
-0.0100389
0.089417
0.183788
0.259466
0.289204
0.257116
0.176455
0.00517141
-0.116357
-0.185876
-0.16325
-0.183523
-0.185149
-0.562787
-0.545907
-0.485774
-0.41293
-0.32523
-0.232497
-0.136882
-0.0399671
0.0561952
0.145994
0.216719
0.235853
0.216228
0.108447
-0.0299971
-0.111422
-0.149494
-0.197956
-0.172276
-0.180867
-0.588069
-0.570784
-0.511017
-0.438949
-0.351517
-0.260158
-0.166367
-0.0718584
0.0206222
0.106069
0.172668
0.18144
0.173508
0.0480992
-0.0666327
-0.13009
-0.106398
-0.166329
-0.147284
-0.152209
-0.61293
-0.595537
-0.537167
-0.465963
-0.378757
-0.289167
-0.197343
-0.105403
-0.0170705
0.0644772
0.128438
0.129656
0.121734
-0.00334433
-0.0935457
-0.144107
-0.132687
-0.147279
-0.152829
-0.150967
-0.637244
-0.619978
-0.563598
-0.493183
-0.406498
-0.319159
-0.229432
-0.140197
-0.0563546
0.0215249
0.0843537
0.0820041
0.0642411
-0.0455825
-0.107085
-0.138087
-0.177183
-0.148335
-0.154105
-0.148466
-0.659795
-0.643235
-0.588916
-0.519729
-0.434497
-0.349621
-0.262086
-0.175729
-0.0963558
-0.0224076
0.0399203
0.0384781
0.00880235
-0.080976
-0.121128
-0.113096
-0.186221
-0.128762
-0.143947
-0.136093
-0.680134
-0.66468
-0.612392
-0.544445
-0.462313
-0.379773
-0.294661
-0.211355
-0.136082
-0.0668787
-0.00500003
-0.00190079
-0.0367271
-0.0999736
-0.1287
-0.0883816
-0.132591
-0.115415
-0.121563
-0.118477
-0.696436
-0.682629
-0.632955
-0.567097
-0.488881
-0.408508
-0.326281
-0.246328
-0.174727
-0.111148
-0.05064
-0.0399841
-0.0683155
-0.101199
-0.119189
-0.0955147
-0.109716
-0.11325
-0.11422
-0.11447
-0.708064
-0.696423
-0.650052
-0.586736
-0.512489
-0.43506
-0.356135
-0.279747
-0.211428
-0.153857
-0.0951999
-0.0758613
-0.0922161
-0.0961658
-0.109729
-0.123095
-0.114539
-0.118936
-0.116387
-0.117053
-0.713441
-0.70423
-0.662049
-0.602209
-0.531917
-0.458158
-0.383055
-0.310554
-0.245391
-0.193362
-0.13633
-0.111914
-0.120601
-0.0966638
-0.098671
-0.132118
-0.11178
-0.122176
-0.116058
-0.118301
-0.712774
-0.705721
-0.667865
-0.611909
-0.545981
-0.476661
-0.405922
-0.33745
-0.275656
-0.227762
-0.17262
-0.14781
-0.151161
-0.114164
-0.0776113
-0.110215
-0.0947146
-0.118352
-0.119829
-0.123373
-0.704958
-0.697623
-0.664861
-0.614553
-0.553846
-0.489368
-0.423348
-0.35897
-0.300509
-0.255351
-0.203377
-0.180709
-0.181578
-0.155275
-0.0889684
-0.101883
-0.121318
-0.136425
-0.140802
-0.142786
-0.684638
-0.67623
-0.651615
-0.608664
-0.554246
-0.495463
-0.434439
-0.373686
-0.317686
-0.273823
-0.225184
-0.206972
-0.228956
-0.306999
-0.431762
-0.518366
-0.535529
-0.496698
-0.455133
-0.427616
-0.642135
-0.634134
-0.625253
-0.594521
-0.54811
-0.49507
-0.438886
-0.38071
-0.325179
-0.280423
-0.233603
-0.205265
-0.294577
-0.458748
-0.701999
-0.835864
-0.845677
-0.814863
-0.770995
-0.71882
-0.600871
-0.597916
-0.597138
-0.573159
-0.535932
-0.489421
-0.43673
-0.379737
-0.321463
-0.271206
-0.221793
-0.155735
-0.151741
-0.189266
-0.275378
-0.272489
-0.193551
-0.125491
-0.0543253
-0.013862
-0.578828
-0.580449
-0.570535
-0.555654
-0.525151
-0.481912
-0.430439
-0.372856
-0.308411
-0.243169
-0.179471
-0.0562556
0.100072
0.351527
0.599613
0.812608
0.969526
1.06191
1.1024
1.13668
-0.547409
-0.547211
-0.543849
-0.541625
-0.516033
-0.475092
-0.422623
-0.362059
-0.290842
-0.208174
-0.120406
0.0215922
0.240762
0.576728
0.915147
1.19363
1.38574
1.50155
1.55843
1.57798
-0.534005
-0.53219
-0.534887
-0.528713
-0.509878
-0.471394
-0.417318
-0.352281
-0.275178
-0.180675
-0.0773772
0.0546152
0.292044
0.611987
0.933263
1.20511
1.40587
1.52674
1.58027
1.59557
-0.52147
-0.520375
-0.52404
-0.517119
-0.505935
-0.46724
-0.412181
-0.344857
-0.264784
-0.165018
-0.0567353
0.0484989
0.267021
0.541146
0.812545
1.04709
1.2295
1.33886
1.38684
1.40023
-0.505383
-0.505258
-0.506544
-0.50424
-0.501481
-0.464525
-0.410521
-0.342078
-0.260829
-0.162068
-0.0577484
0.0207278
0.201926
0.432952
0.651324
0.838225
0.987507
1.07809
1.11724
1.12712
-0.489676
-0.489271
-0.486781
-0.485673
-0.483227
-0.460221
-0.412246
-0.343574
-0.263636
-0.170659
-0.0718954
-0.0110341
0.12813
0.320842
0.493618
0.635521
0.748701
0.818483
0.848286
0.855947
-0.490971
-0.488672
-0.48269
-0.481113
-0.476636
-0.460775
-0.413805
-0.345277
-0.26798
-0.184171
-0.0909953
-0.0392281
0.0597058
0.216089
0.352188
0.458553
0.541321
0.593785
0.615358
0.619692
-0.514119
-0.51171
-0.509334
-0.513338
-0.510532
-0.48695
-0.421813
-0.347432
-0.270017
-0.195852
-0.109238
-0.0615475
0.00393572
0.127197
0.232916
0.312343
0.373283
0.412324
0.427308
0.432387
-0.556401
-0.558523
-0.5643
-0.573967
-0.565979
-0.519032
-0.432004
-0.348034
-0.268036
-0.202055
-0.123143
-0.0780031
-0.0355046
0.0608879
0.140618
0.198559
0.244247
0.274881
0.285107
0.288016
-0.554205
-0.559092
-0.570468
-0.582571
-0.569643
-0.510411
-0.421769
-0.337265
-0.257976
-0.199482
-0.130171
-0.0884835
-0.0603091
0.0163345
0.0747905
0.115482
0.149635
0.171143
0.180417
0.183115
-0.456822
-0.46241
-0.477128
-0.485716
-0.478178
-0.434152
-0.369721
-0.303157
-0.236398
-0.18444
-0.129553
-0.0931924
-0.0727326
-0.0127566
0.0289474
0.0578782
0.0810564
0.0948015
0.101079
0.102712
-0.297587
-0.302933
-0.309523
-0.315372
-0.314576
-0.298885
-0.271942
-0.238749
-0.196759
-0.158801
-0.121245
-0.0928965
-0.0745482
-0.0317174
-0.00258968
0.0175142
0.0320165
0.0399152
0.0427061
0.0426523
-0.147366
-0.149667
-0.153942
-0.160535
-0.16582
-0.168401
-0.167657
-0.161641
-0.145049
-0.12657
-0.105246
-0.0862458
-0.0701522
-0.0423646
-0.0234132
-0.0108215
-0.00287489
0.00028053
0.000389687
-0.000538881
-0.0359354
-0.0371878
-0.0401433
-0.0474435
-0.0587152
-0.0719697
-0.0845857
-0.0935535
-0.0944624
-0.0924195
-0.0834952
-0.0733606
-0.062179
-0.0456973
-0.0353098
-0.0291808
-0.0263298
-0.0264906
-0.0281043
-0.0294057
0.0291556
0.0282422
0.0259876
0.0186079
0.00450695
-0.0135588
-0.0309852
-0.0454312
-0.054497
-0.06176
-0.0605287
-0.0563348
-0.0524982
-0.0445917
-0.040646
-0.0394903
-0.0401613
-0.0423222
-0.0445196
-0.0459067
0.0585419
0.0579242
0.0560922
0.0495258
0.0361318
0.0178959
-0.000320156
-0.0166148
-0.0285968
-0.038856
-0.0410246
-0.0409617
-0.042551
-0.0407206
-0.0410585
-0.0430179
-0.0457174
-0.0487883
-0.0510102
-0.0523494
0.0673017
0.0668125
0.0653172
0.059976
0.0488794
0.0331348
0.0163488
1.38689e-05
-0.0128315
-0.0236251
-0.0268188
-0.0295187
-0.0334875
-0.0352312
-0.0382828
-0.0419453
-0.0453782
-0.0484052
-0.0503745
-0.0515889
0.0651769
0.0648263
0.0636757
0.0596212
0.0511292
0.0387669
0.0247287
0.00987579
-0.00253402
-0.0134809
-0.017299
-0.0211044
-0.0256812
-0.0291181
-0.0333036
-0.0375142
-0.0409915
-0.0436967
-0.045264
-0.0463251
0.0581285
0.0578962
0.0570537
0.0541014
0.0478566
0.0386143
0.0276579
0.0153104
0.00459798
-0.00606385
-0.0106174
-0.0143701
-0.0190578
-0.0229127
-0.0273637
-0.0314524
-0.0346011
-0.036916
-0.0380741
-0.0389863
0.04944
0.0492954
0.0486892
0.0466166
0.0421791
0.0354258
0.0271707
0.0174203
0.00902045
-0.000625617
-0.00550611
-0.0086075
-0.0129618
-0.0168765
-0.0213098
-0.0251468
-0.0279665
-0.0299444
-0.0307405
-0.0314863
0.0406961
0.0406291
0.0402148
0.0387981
0.0357259
0.0309462
0.0249058
0.017371
0.0111413
0.00299013
-0.0014188
-0.00399913
-0.00777549
-0.0113834
-0.0156141
-0.0191357
-0.0216681
-0.0234273
-0.0240158
-0.0246293
0.0324072
0.032377
0.0321002
0.0311607
0.0290559
0.0256936
0.0213682
0.015692
0.0113657
0.00490136
0.00153567
-0.000705853
-0.00416846
-0.0073019
-0.0109252
-0.0138587
-0.0160263
-0.0175603
-0.0180032
-0.0184884
0.0248989
0.0248761
0.0246832
0.024059
0.0226455
0.0203237
0.0172138
0.0129575
0.010074
0.00512292
0.00278893
0.00111955
-0.00200971
-0.00459471
-0.00748226
-0.00975504
-0.0114081
-0.0125775
-0.0129137
-0.0133216
0.0182583
0.0182443
0.0181209
0.0177276
0.0168221
0.0153038
0.0131977
0.0100495
0.00816835
0.00434121
0.00270517
0.00143104
-0.00109199
-0.00289083
-0.00499092
-0.00659013
-0.00768479
-0.00847214
-0.00870091
-0.00903036
0.0123055
0.0122886
0.0122208
0.0120007
0.0114739
0.0105582
0.00934457
0.00716929
0.00614101
0.00312459
0.00198071
0.000981814
-0.000954606
-0.00177562
-0.00310675
-0.00410537
-0.00473388
-0.00521295
-0.00540162
-0.00570082
0.00694307
0.0069252
0.00689385
0.00682915
0.00660686
0.00614969
0.00564631
0.00427993
0.00397227
0.00177736
0.00113885
0.000411787
-0.00103248
-0.00092242
-0.0019026
-0.0024055
-0.00261273
-0.0027814
-0.00274167
-0.0029706
0.00229768
0.00231505
0.0023402
0.00237134
0.00235988
0.00218409
0.00212873
0.00143848
0.00160853
0.000502892
0.00049917
0.00038907
-0.000467918
-0.000117105
-0.00123053
-0.00161183
-0.00202508
-0.00233644
-0.0020579
-0.00204645
-1.07258
-0.235846
0.0340794
0.30919
0.489223
0.643369
0.76692
0.893032
1.03281
1.11686
-0.0954257
0.309776
0.324935
0.512299
0.634461
0.744075
0.838159
0.922181
0.949178
0.907585
0.278751
0.491462
0.525257
0.66105
0.745652
0.824371
0.889342
0.938162
0.94001
0.954359
0.50636
0.648111
0.682728
0.783368
0.839928
0.896702
0.941103
0.973223
0.982168
1.00594
0.682839
0.783286
0.812982
0.87966
0.924016
0.964451
0.996327
1.02049
1.03019
1.06184
0.825112
0.893367
0.923568
0.965989
1.00185
1.03173
1.05586
1.07657
1.09062
1.11897
0.943625
0.993881
1.01932
1.04708
1.07455
1.0982
1.11808
1.13731
1.15215
1.1787
1.047
1.08384
1.10482
1.12536
1.14605
1.16537
1.18274
1.20084
1.21571
1.23938
1.14074
1.16977
1.18605
1.20127
1.21732
1.23335
1.24889
1.26579
1.27941
1.30173
1.22887
1.2493
1.26412
1.27726
1.29081
1.30457
1.31807
1.33266
1.3442
1.36384
1.31425
1.33002
1.34383
1.35564
1.36755
1.37918
1.39032
1.402
1.40967
1.42647
1.39946
1.412
1.42571
1.43745
1.44809
1.45788
1.46671
1.47497
1.47853
1.48977
1.4882
1.49903
1.5125
1.52202
1.52959
1.53688
1.54407
1.55054
1.55164
1.559
1.58661
1.59122
1.59941
1.60415
1.60754
1.61202
1.61802
1.62568
1.62958
1.63946
1.6999
1.68679
1.67951
1.67379
1.67106
1.6724
1.67873
1.6911
1.70592
1.73559
1.82188
1.76584
1.73482
1.71763
1.70941
1.70934
1.71818
1.7378
1.7696
1.83886
)
;

boundaryField
{
    wall-4
    {
        type            zeroGradient;
    }
    pressure-outlet-7
    {
        type            fixedValue;
        value           uniform 0;
    }
    velocity-inlet-6
    {
        type            zeroGradient;
    }
    velocity-inlet-5
    {
        type            zeroGradient;
    }
    frontAndBackPlanes
    {
        type            empty;
    }
}


// ************************************************************************* //
