/*--------------------------------*- C++ -*----------------------------------*\
| =========                 |                                                 |
| \\      /  F ield         | OpenFOAM: The Open Source CFD Toolbox           |
|  \\    /   O peration     | Version:  v2012                                 |
|   \\  /    A nd           | Website:  www.openfoam.com                      |
|    \\/     M anipulation  |                                                 |
\*---------------------------------------------------------------------------*/
FoamFile
{
    version     2.0;
    format      ascii;
    class       surfaceScalarField;
    location    "61";
    object      phi;
}
// * * * * * * * * * * * * * * * * * * * * * * * * * * * * * * * * * * * * * //

dimensions      [0 3 -1 0 0 0 0];
oriented        oriented;


internalField   nonuniform List<scalar> 
4262
(
0.10713
0.470859
0.095551
0.705164
0.0693495
0.858505
0.0473181
1.02079
0.0309273
1.21491
0.0197197
1.44943
0.0123111
1.73327
0.00708406
2.07626
0.00307255
2.48926
-0.000640276
2.98601
-0.00419683
2.98585
-0.0079665
2.48901
-0.0130131
2.07608
-0.0201818
1.73303
-0.0311131
1.44915
-0.0471599
1.21456
-0.0688987
1.0205
-0.0951762
0.85858
-0.107059
0.705469
0.470929
0.11288
0.357978
0.135306
0.682739
0.120433
0.873377
0.0979023
1.04333
0.07466
1.23815
0.0529186
1.47117
0.0344958
1.75169
0.0202709
2.09049
0.0090678
2.50046
-0.000885158
2.99596
-0.0111228
2.99609
-0.0223446
2.50024
-0.036365
2.0901
-0.0546842
1.75135
-0.0765365
1.471
-0.100322
1.23835
-0.123545
1.04373
-0.137034
0.87207
-0.113568
0.682002
0.357361
0.09204
0.265938
0.124958
0.649821
0.121079
0.877256
0.104814
1.05959
0.0861834
1.25678
0.067063
1.49029
0.0481204
1.77064
0.0300746
2.10853
0.0134647
2.51707
-0.00265697
3.01208
-0.018367
3.0118
-0.0343236
2.51619
-0.0518543
2.10763
-0.0702235
1.76972
-0.0885227
1.4893
-0.105685
1.25551
-0.119735
1.05778
-0.125191
0.877525
-0.0923355
0.649147
0.265026
0.0639891
0.201949
0.104827
0.608983
0.106604
0.875479
0.0952032
1.07099
0.0812506
1.27073
0.0664915
1.50505
0.0503493
1.78678
0.033178
2.12571
0.0155266
2.53472
-0.00305569
3.03066
-0.0215537
3.03029
-0.0389137
2.53355
-0.0553609
2.12408
-0.0706638
1.78502
-0.0845555
1.50319
-0.0982983
1.26925
-0.110071
1.06955
-0.107079
0.874533
-0.0649257
0.606993
0.2001
0.0374933
0.164456
0.0807412
0.565735
0.0910281
0.865192
0.0838301
1.07819
0.0712102
1.28335
0.059332
1.51693
0.0462952
1.79982
0.0313436
2.14066
0.0143707
2.55169
-0.00498256
3.05002
-0.0237006
3.04901
-0.039579
2.54943
-0.0534652
2.13797
-0.0654992
1.79706
-0.0767071
1.5144
-0.088639
1.28119
-0.0950331
1.07594
-0.0832045
0.862705
-0.0383968
0.562185
0.161703
0.0194553
0.145001
0.0571741
0.528017
0.0725467
0.84982
0.0704391
1.0803
0.0616453
1.29215
0.050798
1.52777
0.0396378
1.81098
0.0269612
2.15333
0.0118666
2.56679
-0.00564365
3.06753
-0.0229753
3.06634
-0.037431
2.56389
-0.0490193
2.14956
-0.0590159
1.80705
-0.0688745
1.52426
-0.0764826
1.28879
-0.0772503
1.07671
-0.0600524
0.845507
-0.0203875
0.522521
0.141316
0.0106062
0.134394
0.0423146
0.496308
0.0584146
0.83372
0.0586935
1.08002
0.0525472
1.29829
0.0431658
1.53716
0.0327762
1.82137
0.0214283
2.16468
0.00811504
2.5801
-0.00803543
3.08368
-0.023505
3.08181
-0.0353061
2.57569
-0.04505
2.1593
-0.0538685
1.81587
-0.0617205
1.53211
-0.0662631
1.29334
-0.0643564
1.0748
-0.0459554
0.827106
-0.0117241
0.488289
0.129592
0.00657735
0.127817
0.032958
0.469928
0.0492231
0.817454
0.0507085
1.07853
0.0455843
1.30342
0.037194
1.54555
0.0275466
1.83101
0.0166386
2.17559
0.00456492
2.59217
-0.00918688
3.09743
-0.0225029
3.09513
-0.033448
2.58663
-0.0426947
2.16855
-0.050429
1.82361
-0.0569772
1.53866
-0.0601702
1.29653
-0.0564535
1.07109
-0.0372756
0.807928
-0.00788137
0.458895
0.12171
0.00470704
0.12311
0.0265353
0.448099
0.042325
0.801665
0.0444061
1.07645
0.0397452
1.30808
0.0320631
1.55323
0.0229042
1.84017
0.0123401
2.18615
0.000602192
2.60391
-0.0124799
3.11051
-0.0244781
3.10713
-0.0340769
2.59623
-0.0422506
2.17672
-0.0491515
1.83051
-0.0545643
1.54407
-0.0568083
1.29877
-0.0517368
1.06602
-0.0320344
0.788226
-0.0063799
0.433241
0.11533
0.00374771
0.119362
0.0216948
0.430152
0.0368604
0.786499
0.0396242
1.07369
0.0352308
1.31247
0.0278017
1.56066
0.0189548
1.84902
0.008897
2.19621
-0.0022969
2.61511
-0.0144537
3.12267
-0.0257794
3.11845
-0.0351753
2.60563
-0.0427441
2.18429
-0.0487582
1.83652
-0.0534687
1.54878
-0.0546605
1.29996
-0.0482765
1.05963
-0.0283203
0.768269
-0.00577537
0.410696
0.109555
0.00304119
0.116321
0.0175109
0.415683
0.0314054
0.772605
0.034345
1.07075
0.0302324
1.31658
0.0231473
1.56774
0.0145685
1.8576
0.00446528
2.20631
-0.00702493
2.6266
-0.0192108
3.13485
-0.0301047
3.12935
-0.0381984
2.61372
-0.0446139
2.1907
-0.0498467
1.84175
-0.0535445
1.55248
-0.0536488
1.30007
-0.0458099
1.05179
-0.0256463
0.748106
-0.00552374
0.390573
0.104031
0.00237206
0.113949
0.0138437
0.404211
0.026435
0.760013
0.029534
1.06765
0.0254994
1.32062
0.0183887
1.57485
0.00990363
1.86608
0.000322806
2.2159
-0.0103562
2.63727
-0.0222459
3.14674
-0.0329136
3.14002
-0.0411311
2.62194
-0.0470305
2.1966
-0.0511652
1.84589
-0.0538434
1.55516
-0.0531806
1.29941
-0.0439722
1.04258
-0.0237292
0.727863
-0.00539995
0.372244
0.0986314
0.00170478
0.112244
0.0105463
0.395369
0.021364
0.749196
0.0239627
1.06505
0.0198586
1.32472
0.0128266
1.58188
0.00426233
1.87465
-0.00569615
2.22585
-0.016997
2.64858
-0.0289245
3.15867
-0.0387839
3.14987
-0.0452131
2.62837
-0.049799
2.20119
-0.0534337
1.84952
-0.0551811
1.55691
-0.0535864
1.29781
-0.0430438
1.03204
-0.0224914
0.70731
-0.00532012
0.355073
0.0933113
0.000819166
0.111425
0.00703873
0.38915
0.0161592
0.740075
0.0183888
1.06282
0.0139639
1.32915
0.00651765
1.58933
-0.0022513
1.88342
-0.0119564
2.23556
-0.0224822
2.6591
-0.0337176
3.16991
-0.0433093
3.15947
-0.0498078
2.63487
-0.0537734
2.20516
-0.05642
1.85217
-0.0571734
1.55766
-0.0546143
1.29525
-0.0427092
1.02014
-0.0217674
0.686368
-0.00529954
0.338605
0.0880118
0.000152318
0.111273
0.00423436
0.385068
0.0110045
0.733305
0.0120058
1.06182
0.00707728
1.33408
-0.000673707
1.59708
-0.0100183
1.89276
-0.0204608
2.246
-0.0317842
2.67042
-0.0431994
3.18132
-0.0515713
3.16784
-0.0561282
2.63942
-0.0589768
2.208
-0.060946
1.85414
-0.0608621
1.55758
-0.056684
1.29107
-0.0431175
1.00657
-0.021535
0.664786
-0.00534613
0.322416
0.0826656
-0.000822493
0.112095
0.000527918
0.383717
0.00532512
0.728508
0.00567033
1.06147
0.000224595
1.33952
-0.00830694
1.60561
-0.01824
1.90269
-0.0289302
2.25669
-0.0400202
2.68151
-0.0507509
3.19205
-0.0588957
3.17598
-0.063537
2.64406
-0.0655875
2.21005
-0.066599
1.85515
-0.0654782
1.55646
-0.0596834
1.28528
-0.0443111
0.991198
-0.0218108
0.642286
-0.00549172
0.306097
0.0771739
-0.00167944
0.113775
-0.0025477
0.384586
-0.000640561
0.726601
-0.00238186
1.06322
-0.00896216
1.3461
-0.0182949
1.61495
-0.029192
1.91359
-0.0411231
2.26862
-0.053207
2.6936
-0.0640928
3.20294
-0.0708626
3.18275
-0.0739006
2.6471
-0.0750634
2.21122
-0.0746233
1.85471
-0.071807
1.55364
-0.0640443
1.27752
-0.0465106
0.973665
-0.0226535
0.618429
-0.00576991
0.289213
0.071404
-0.00305312
0.116828
-0.00631608
0.387849
-0.00801337
0.728298
-0.0112565
1.06646
-0.0186988
1.35354
-0.0289606
1.62521
-0.0405867
1.92522
-0.0528841
2.28092
-0.0651322
2.70585
-0.075865
3.21367
-0.0824371
3.18932
-0.0849027
2.64957
-0.084564
2.21088
-0.0832585
1.85341
-0.0796121
1.54999
-0.069743
1.26765
-0.0496319
0.953554
-0.0239987
0.592795
-0.00615129
0.271366
0.0652527
-0.00432974
0.121158
-0.0105058
0.394025
-0.015555
0.733347
-0.0217464
1.07265
-0.0308191
1.36262
-0.0427107
1.6371
-0.055985
1.93849
-0.070156
2.29509
-0.0838611
2.71955
-0.0945706
3.22438
-0.099288
3.19404
-0.0999353
2.65021
-0.0989416
2.20988
-0.0957113
1.85018
-0.089579
1.54386
-0.0771303
1.2552
-0.0538827
0.930306
-0.0258708
0.564783
-0.00664033
0.252135
0.0586124
-0.00577243
0.12693
-0.0155239
0.403776
-0.0246177
0.742441
-0.0337173
1.08175
-0.0447603
1.37366
-0.0584007
1.65074
-0.0731116
1.9532
-0.0878654
2.30984
-0.101455
2.73314
-0.112432
3.23536
-0.117479
3.19909
-0.117187
2.64992
-0.113384
2.20608
-0.108811
1.8456
-0.101573
1.53662
-0.0859111
1.23954
-0.0589358
0.903331
-0.0280658
0.533913
-0.00715097
0.23122
0.0514614
-0.00808796
0.135018
-0.0223143
0.418003
-0.0366335
0.75676
-0.0490811
1.0942
-0.0621078
1.38669
-0.0778457
1.66648
-0.0948272
1.97018
-0.112356
2.32737
-0.128438
2.74922
-0.139155
3.24607
-0.14084
3.20078
-0.137867
2.64695
-0.133701
2.20192
-0.126997
1.8389
-0.116213
1.52584
-0.0968747
1.2202
-0.0653367
0.871793
-0.030704
0.499281
-0.0077198
0.208236
0.0437416
-0.0105331
0.145551
-0.0296168
0.437086
-0.0500397
0.777183
-0.067506
1.11166
-0.0840113
1.40319
-0.102696
1.68516
-0.122248
1.98974
-0.140683
2.34581
-0.155324
2.76386
-0.164107
3.25486
-0.166156
3.20282
-0.162283
2.64308
-0.154531
2.19416
-0.145683
1.83005
-0.132884
1.51304
-0.108741
1.19606
-0.0718401
0.834892
-0.0332321
0.460673
-0.00817339
0.183177
0.0355682
-0.0152511
0.160802
-0.0418588
0.463694
-0.0692368
0.804561
-0.091588
1.13402
-0.111584
1.42319
-0.133703
1.70728
-0.155692
2.01173
-0.176288
2.3664
-0.192965
2.78054
-0.202216
3.26411
-0.199673
3.20028
-0.191238
2.63464
-0.182262
2.18519
-0.170384
1.81817
-0.152508
1.49517
-0.123085
1.16663
-0.0798024
0.791609
-0.0359383
0.416809
-0.00857013
0.155809
0.0269981
-0.019332
0.180134
-0.0546248
0.498987
-0.0916605
0.841597
-0.121908
1.16426
-0.148026
1.44931
-0.174714
1.73397
-0.19967
2.03668
-0.220626
2.38736
-0.234341
2.79426
-0.237068
3.26683
-0.231253
3.19447
-0.221911
2.6253
-0.209223
2.1725
-0.195084
1.80403
-0.174269
1.47435
-0.137668
1.13003
-0.0865106
0.740452
-0.0377606
0.368059
-0.00856288
0.126612
0.0184352
-0.0325916
0.212726
-0.0817987
0.548194
-0.129624
0.889422
-0.166309
1.20095
-0.197605
1.4806
-0.228274
1.76464
-0.253834
2.06224
-0.273532
2.40706
-0.285046
2.80577
-0.286651
3.26844
-0.276776
3.18459
-0.261139
2.60966
-0.245492
2.15685
-0.22672
1.78526
-0.19829
1.44592
-0.15367
1.08541
-0.094301
0.681082
-0.0396342
0.313392
-0.00846317
0.0954405
0.00997205
-0.0469568
0.259683
-0.120589
0.621826
-0.184169
0.953002
-0.229702
1.24648
-0.267253
1.51815
-0.298518
1.7959
-0.321683
2.08541
-0.337459
2.42284
-0.343586
2.8119
-0.336274
3.26113
-0.317883
3.1662
-0.298655
2.59043
-0.278753
2.13695
-0.256169
1.76268
-0.222713
1.41247
-0.167739
1.03044
-0.0974953
0.610839
-0.0387802
0.254677
-0.00823023
0.0648906
0.00174182
-0.033961
0.293644
-0.0975263
0.685391
-0.156177
1.01165
-0.203836
1.29414
-0.247125
1.56144
-0.28611
1.83489
-0.322548
2.12185
-0.355239
2.45553
-0.380093
2.83675
-0.393866
3.2749
-0.394609
3.16694
-0.383327
2.57915
-0.365289
2.11891
-0.336447
1.73383
-0.283973
1.35999
-0.202938
0.949403
-0.109979
0.51788
-0.0420204
0.186718
-0.00947683
0.032347
-0.00773501
-0.0126634
0.306307
-0.0476422
0.72037
-0.0896911
1.0537
-0.129407
1.33386
-0.168827
1.60086
-0.203879
1.86994
-0.236365
2.15433
-0.264351
2.48351
-0.284579
2.85698
-0.292862
3.28318
-0.283339
3.15742
-0.263771
2.55958
-0.239437
2.09458
-0.206305
1.7007
-0.16265
1.31634
-0.104874
0.891627
-0.0480592
0.461065
-0.0175473
0.156206
-0.00426739
0.0190671
-0.0120024
0.00016916
0.306138
-0.024543
0.745082
-0.0540477
1.08321
-0.0843669
1.36417
-0.116211
1.63271
-0.147085
1.90081
-0.1756
2.18285
-0.199374
2.50729
-0.21489
2.87249
-0.216423
3.28472
-0.200829
3.14183
-0.178577
2.53733
-0.152936
2.06894
-0.124265
1.67203
-0.0850535
1.27712
-0.0423085
0.848882
-0.0134572
0.432214
-0.00426124
0.14701
-0.00144501
0.0162509
-0.0134474
0.000629467
0.305508
-0.0129877
0.758699
-0.0342976
1.10452
-0.0588454
1.38872
-0.0848472
1.65871
-0.110845
1.92681
-0.135049
2.20705
-0.155066
2.5273
-0.166993
2.88442
-0.164855
3.28258
-0.148928
3.1259
-0.125838
2.51424
-0.0975697
2.04067
-0.0636567
1.63812
-0.0316632
1.24513
-0.00611996
0.823338
0.00543932
0.420655
0.00387891
0.148571
0.000713321
0.0194165
-0.0127341
0.00438492
0.301123
-0.00453468
0.767619
-0.0226327
1.12261
-0.0434779
1.40957
-0.0653072
1.68054
-0.0871428
1.94865
-0.107763
2.22767
-0.124246
2.54379
-0.13274
2.89292
-0.12876
3.2786
-0.11172
3.10886
-0.0871378
2.48966
-0.0588071
2.01234
-0.0320106
1.61132
-0.00358823
1.21671
0.016365
0.803385
0.017982
0.419038
0.00977784
0.156775
0.00249495
0.0266994
-0.0102391
0.00518399
0.295939
-0.000766756
0.77357
-0.0163799
1.13823
-0.0345197
1.42771
-0.0536523
1.69967
-0.0727011
1.96769
-0.090509
2.24548
-0.104988
2.55827
-0.11284
2.90077
-0.108273
3.27403
-0.0900508
3.09064
-0.0660797
2.46569
-0.0392174
1.98548
-0.00961712
1.58172
0.0123115
1.19478
0.0233486
0.792348
0.0221869
0.420199
0.0121064
0.166855
0.00328144
0.0355244
-0.0069577
0.00440156
0.291538
0.000365812
0.777605
-0.0128604
1.15145
-0.0293482
1.4442
-0.0464724
1.7168
-0.0635805
1.9848
-0.0799244
2.26182
-0.0932941
2.57164
-0.0999401
2.90741
-0.09486
3.26895
-0.0783598
3.07414
-0.0543076
2.44163
-0.0275349
1.9587
-0.00536535
1.55955
0.0151249
1.17429
0.0263657
0.781107
0.0226197
0.423945
0.0124552
0.17702
0.00351296
0.0444666
-0.00344475
0.00267541
0.288862
-0.000785863
0.781067
-0.012303
1.16297
-0.0268523
1.45874
-0.0428445
1.73279
-0.05896
2.00092
-0.0742691
2.27713
-0.0868313
2.5842
-0.0932237
2.9138
-0.0889979
3.26473
-0.0719314
3.05707
-0.0499328
2.41964
-0.0278573
1.93663
-0.00245997
1.53416
0.0149945
1.15683
0.0224412
0.773661
0.0202257
0.426161
0.0112634
0.185982
0.0033121
0.052418
-0.000132651
0.000916269
0.287946
-0.00212863
0.784111
-0.0127452
1.17359
-0.0262371
1.47224
-0.041231
1.74778
-0.0563252
2.01601
-0.0709384
2.29174
-0.0832641
2.59652
-0.0901825
2.92072
-0.0879066
3.26245
-0.0736414
3.04281
-0.0528846
2.39888
-0.0285155
1.91226
-0.00930532
1.51495
0.0080579
1.13947
0.0182809
0.763438
0.0159202
0.428522
0.00908905
0.192813
0.00271481
0.0587922
0.00258216
-0.00049665
0.288443
-0.00506298
0.788678
-0.0143974
1.18292
-0.0265036
1.48434
-0.040663
1.76194
-0.0553474
2.0307
-0.0697744
2.30617
-0.0824524
2.6092
-0.0904216
2.92869
-0.0891342
3.26116
-0.0749742
3.02865
-0.0561824
2.38009
-0.0376556
1.89373
-0.0152521
1.49254
0.0014161
1.1228
0.00896472
0.755889
0.0102615
0.427225
0.00602745
0.197047
0.00199041
0.0628293
0.00457257
-0.00160016
0.290043
-0.00645664
0.793534
-0.0157546
1.19222
-0.0275097
1.4961
-0.0410052
1.77544
-0.0550402
2.04473
-0.0692768
2.32041
-0.0822972
2.62222
-0.0912158
2.93761
-0.0921479
3.2621
-0.0818581
3.01836
-0.0633518
2.36158
-0.0411984
1.87158
-0.0247204
1.47606
-0.00913259
1.10722
0.00234917
0.744407
0.00428445
0.425289
0.00320367
0.198128
0.001255
0.0647779
0.00582757
-0.00315099
0.293194
-0.00868048
0.799064
-0.0174215
1.20096
-0.0283632
1.50704
-0.0412583
1.78833
-0.0551562
2.05863
-0.0696153
2.33487
-0.0833659
2.63597
-0.0938641
2.94811
-0.0968644
3.2651
-0.0872045
3.0087
-0.0703608
2.34474
-0.0533632
1.85458
-0.0322436
1.45494
-0.0163221
1.09129
-0.00646788
0.734553
-0.00074193
0.419564
0.000250303
0.197136
0.000370666
0.0646576
0.00619824
-0.00390264
0.297097
-0.00950397
0.804665
-0.0184163
1.20987
-0.0293795
1.518
-0.0419744
1.80093
-0.0554579
2.07211
-0.0698484
2.34926
-0.0840378
2.65016
-0.0957695
2.95984
-0.101051
3.27038
-0.0949405
3.00259
-0.0795902
2.32939
-0.0576792
1.83267
-0.0408561
1.43812
-0.0242539
1.07469
-0.0106775
0.720977
-0.00489554
0.413782
-0.00131201
0.193552
-3.34092e-05
0.063379
0.00616483
-0.00428678
0.301383
-0.0108397
0.811218
-0.0195249
1.21856
-0.0298834
1.52836
-0.0420604
1.8131
-0.055491
2.08554
-0.0701324
2.3639
-0.0850651
2.66509
-0.0984829
2.97326
-0.10644
3.27833
-0.102463
2.99861
-0.0878823
2.31481
-0.0701282
1.81492
-0.0468934
1.41489
-0.0282887
1.05609
-0.0155859
0.708274
-0.00683295
0.405029
-0.00236413
0.189083
-0.000369585
0.0613844
0.00579525
-0.00427144
0.305655
-0.010987
0.817934
-0.0198849
1.22746
-0.0303543
1.53883
-0.0423857
1.82514
-0.0554866
2.09864
-0.0700371
2.37845
-0.0854039
2.68046
-0.100144
2.988
-0.11058
3.28877
-0.109861
2.99789
-0.0967875
2.30173
-0.0743268
1.79245
-0.0533744
1.39393
-0.03208
1.03479
-0.0149996
0.691193
-0.0069439
0.396973
-0.00223514
0.184375
-0.000571623
0.0597209
0.00522362
-0.00444603
0.310101
-0.0117196
0.825207
-0.0203388
1.23607
-0.0302615
1.54875
-0.041886
1.83676
-0.0549218
2.11168
-0.0697021
2.39323
-0.0857336
2.69649
-0.10185
3.00411
-0.1147
3.30162
-0.116568
2.99976
-0.105485
2.29065
-0.0872895
1.77426
-0.0582909
1.36494
-0.0321816
1.00868
-0.0140393
0.673051
-0.0021662
0.3851
0.00154628
0.180662
0.00129249
0.0599747
0.00651611
-0.00441568
0.314517
-0.0114962
0.832288
-0.0201182
1.2447
-0.0301028
1.55874
-0.0415984
1.84826
-0.0543415
2.12442
-0.0689856
2.40787
-0.0852987
2.71281
-0.102535
3.02135
-0.117875
3.31696
-0.123571
3.00546
-0.114783
2.28186
-0.0918714
1.75135
-0.0644201
1.33748
-0.0317721
0.976036
-0.00591027
0.647189
0.00671882
0.372471
0.00608763
0.181293
-0.00101616
0.0670785
0.00549995
-0.00452946
0.319046
-0.0118264
0.839585
-0.0200689
1.25294
-0.0294849
1.56815
-0.0405268
1.8593
-0.0531423
2.13704
-0.0679093
2.42264
-0.0847077
2.7296
-0.102977
3.03962
-0.120132
3.33411
-0.128694
3.01402
-0.123263
2.27643
-0.106013
1.7341
-0.0705973
1.30207
-0.0296374
0.935076
0.00687522
0.610677
0.0341653
0.345181
0.0426506
0.172808
0.0273235
0.0824056
0.0328234
-0.00437791
0.323424
-0.0113199
0.846527
-0.0194516
1.26107
-0.0288401
1.57754
-0.0397099
1.87017
-0.0520078
2.14934
-0.0665332
2.43717
-0.0834236
2.7465
-0.102478
3.05867
-0.121823
3.35346
-0.133822
3.02602
-0.132586
2.27519
-0.111971
1.71348
-0.0789494
1.26905
-0.0301133
0.88624
0.0179539
0.562609
0.0570391
0.306095
0.0513273
0.17852
0.0225318
0.111201
0.0553553
-0.00430285
0.327727
-0.0113358
0.85356
-0.0190647
1.2688
-0.0278495
1.58633
-0.038244
1.88056
-0.0503298
2.16142
-0.0648595
2.4517
-0.0820438
2.76368
-0.101766
3.0784
-0.122451
3.37415
-0.136578
3.04014
-0.139554
2.27817
-0.127901
1.70183
-0.090712
1.23186
-0.0364034
0.831931
0.0352094
0.490997
0.132658
0.208647
0.200699
0.11048
0.184238
0.127662
0.239593
-0.00412528
0.331852
-0.0108439
0.860278
-0.0186356
1.27659
-0.0276835
1.59538
-0.0384279
1.89131
-0.0509262
2.17392
-0.066227
2.467
-0.0848442
2.7823
-0.10716
3.10071
-0.132537
3.39952
-0.153296
3.0609
-0.162222
2.2871
-0.149099
1.68871
-0.11602
1.19878
-0.052394
0.768305
0.006074
0.432529
-0.0554351
0.270156
-0.355133
0.410177
-0.944024
0.716553
0.901431
-1.60586
-0.00400756
0.33586
-0.010807
0.867078
-0.0183067
1.28409
-0.0269598
1.60403
-0.0374479
1.90179
-0.0501036
2.18658
-0.0659895
2.48288
-0.0857448
2.80205
-0.109994
3.12496
-0.138576
3.42811
-0.163876
3.0862
-0.17812
2.30134
-0.183169
1.69376
-0.15761
1.17322
-0.1246
0.735295
-0.222114
0.530043
-0.69384
0.741881
-1.44941
1.16575
-2.05528
1.32241
1.21614
-2.36999
-0.00375885
0.339618
-0.0100916
0.87341
-0.0174652
1.29146
-0.0261829
1.61275
-0.0367412
1.91235
-0.0494788
2.19931
-0.0656414
2.49905
-0.0861383
2.82255
-0.112199
3.15102
-0.14487
3.46078
-0.177453
3.11878
-0.201037
2.32493
-0.206238
1.69896
-0.189431
1.15641
-0.274774
0.820638
-0.753076
1.00835
-1.55323
1.54203
-2.11407
1.7266
-2.35223
1.56057
1.32995
-2.46603
-0.00364656
0.343265
-0.00987392
0.879638
-0.016887
1.29848
-0.0251622
1.62102
-0.0353881
1.92258
-0.0481878
2.21211
-0.0648131
2.51567
-0.0863427
2.84408
-0.114315
3.17899
-0.150436
3.4969
-0.188508
3.15686
-0.218761
2.35518
-0.243119
1.72331
-0.317634
1.23093
-0.679175
1.18218
-1.44236
1.77153
-2.0298
2.12948
-2.26875
1.96555
-2.38151
1.67333
1.39368
-2.44524
-0.00331829
0.346583
-0.00898694
0.885306
-0.0157676
1.30526
-0.0240202
1.62927
-0.0343192
1.93288
-0.0471474
2.22494
-0.0639291
2.53245
-0.0860349
2.86618
-0.115636
3.2086
-0.155785
3.53705
-0.202107
3.20318
-0.245153
2.39822
-0.283434
1.7616
-0.464153
1.41165
-1.09563
1.81366
-1.79146
2.46736
-2.10965
2.44767
-2.25717
2.11306
-2.33903
1.75519
1.45966
-2.40501
-0.00332499
0.349908
-0.00912711
0.891109
-0.0158045
1.31194
-0.0238724
1.63734
-0.0342077
1.94321
-0.0473405
2.23807
-0.064784
2.5499
-0.0880787
2.88948
-0.119685
3.2402
-0.163486
3.58085
-0.215802
3.25549
-0.261795
2.44422
-0.348712
1.84851
-0.742563
1.8055
-1.49216
2.56326
-1.96323
2.93843
-2.1629
2.64733
-2.26889
2.21905
-2.34603
1.83233
1.52294
-2.40931
-0.00337417
0.353282
-0.00917338
0.896908
-0.016307
1.31907
-0.0250818
1.64612
-0.036171
1.9543
-0.0499923
2.2519
-0.068198
2.5681
-0.0925586
2.91384
-0.126086
3.27373
-0.17396
3.62872
-0.231857
3.31339
-0.293693
2.50605
-0.480251
2.03507
-1.04579
2.37104
-1.6795
3.19697
-1.95311
3.21204
-2.09964
2.79386
-2.21337
2.33279
-2.30694
1.9259
1.58449
-2.3685
-0.0035248
0.356807
-0.00998444
0.903367
-0.0174348
1.32652
-0.0263755
1.65506
-0.037707
1.96563
-0.0521585
2.26635
-0.0714193
2.58736
-0.097375
2.9398
-0.133172
3.30953
-0.185066
3.68062
-0.248453
3.37678
-0.333347
2.59095
-0.614829
2.31655
-1.26408
3.02029
-1.75181
3.6847
-1.95874
3.41897
-2.09817
2.93328
-2.22186
2.45648
-2.33203
2.03607
1.64306
-2.39059
-0.00343598
0.360243
-0.00977773
0.909709
-0.0178249
1.33457
-0.0276993
1.66493
-0.0399646
1.9779
-0.0551967
2.28158
-0.0752591
2.60742
-0.102271
2.96681
-0.139909
3.34716
-0.194977
3.73569
-0.263114
3.44491
-0.387616
2.71545
-0.774214
2.70315
-1.41032
3.6564
-1.76157
4.03595
-1.93414
3.59153
-2.03573
3.03487
-2.12412
2.54487
-2.19094
2.10288
1.6357
-2.18358
-0.00348227
0.363726
-0.010652
0.916879
-0.0190465
1.34296
-0.0290234
1.67491
-0.0414934
1.99037
-0.0573758
2.29746
-0.078564
2.62861
-0.107262
2.99551
-0.147124
3.38703
-0.204769
3.79333
-0.283786
3.52393
-0.452968
2.88463
-0.905629
3.15581
-1.46191
4.21268
-1.7229
4.29695
-1.87407
3.7427
-1.96727
3.12807
-1.96818
2.54578
-1.89845
2.03315
1.59886
-1.86161
-0.00321655
0.366942
-0.00998212
0.923644
-0.0189801
1.35196
-0.0300001
1.68593
-0.0434484
2.00382
-0.0599347
2.31395
-0.0814364
2.65011
-0.11025
3.02432
-0.150373
3.42715
-0.207239
3.8502
-0.293031
3.60972
-0.497688
3.08929
-0.988443
3.64657
-1.42877
4.653
-1.59315
4.46133
-1.65991
3.80946
-1.66414
3.13231
-1.51633
2.39797
-1.01645
1.53328
0.582406
-0.00286828
0.36981
-0.0107555
0.931532
-0.0201303
1.36133
-0.0312448
1.69704
-0.0451142
2.01769
-0.0627827
2.33162
-0.0863542
2.67369
-0.118319
3.05628
-0.162726
3.47155
-0.227122
3.91459
-0.3305
3.7131
-0.584045
3.34283
-1.1236
4.18612
-1.48118
5.01058
-1.58024
4.56039
-1.57788
3.8071
-1.47392
3.02835
-1.23513
2.15917
-0.631043
0.929192
-0.0486376
-0.00252243
0.372333
-0.00923957
0.938249
-0.0192019
1.3713
-0.0318215
1.70966
-0.0473867
2.03325
-0.0666232
2.35085
-0.0919414
2.699
-0.126184
3.09053
-0.174755
3.52013
-0.244597
3.98443
-0.367064
3.83557
-0.681973
3.65774
-1.24229
4.74644
-1.502
5.27029
-1.56017
4.61856
-1.53766
3.78458
-1.33582
2.82651
-0.781919
1.60527
-0.108444
0.255717
-0.157082
-0.0016468
0.37398
-0.00965746
0.946259
-0.0198654
1.3815
-0.0322964
1.72209
-0.0479525
2.04891
-0.0682011
2.3711
-0.0956069
2.72641
-0.133267
3.12819
-0.185912
3.57277
-0.26475
4.06327
-0.414117
3.98493
-0.78588
4.02951
-1.32027
5.28083
-1.49593
5.44594
-1.52713
4.64977
-1.43871
3.69616
-1.10093
2.48873
-0.31251
0.816857
0.0247296
-0.081523
-0.132352
-0.000851298
0.374831
-0.00664494
0.952053
-0.0171417
1.392
-0.0312566
1.73621
-0.0487825
2.06643
-0.0706913
2.39301
-0.0998267
2.75555
-0.13938
3.16774
-0.194703
3.62809
-0.281165
4.14973
-0.456069
4.15984
-0.894352
4.46779
-1.36564
5.75212
-1.48168
5.56198
-1.48405
4.65214
-1.25883
3.47094
-0.685412
1.91531
-0.062621
0.194067
0.0301408
-0.174285
-0.102212
1.52362e-05
0.374816
-0.0061327
0.958201
-0.0164977
1.40237
-0.0300647
1.74978
-0.0470513
2.08342
-0.0696431
2.4156
-0.100556
2.78646
-0.143163
3.21035
-0.202264
3.6872
-0.298596
4.24607
-0.500592
4.36183
-0.98866
4.95586
-1.36126
6.12473
-1.42481
5.62553
-1.37847
4.6058
-1.08989
3.18235
-0.32182
1.14725
0.00498782
-0.132741
0.0150343
-0.184331
-0.0871774
0.00333798
0.371478
0.000563488
0.960976
-0.0104572
1.41339
-0.025888
1.76521
-0.0446182
2.10215
-0.0689192
2.4399
-0.101279
2.81882
-0.145016
3.25409
-0.206315
3.74849
-0.30985
4.3496
-0.53704
4.58902
-1.04948
5.4683
-1.3249
6.40015
-1.3661
5.66673
-1.22535
4.46506
-0.770268
2.72726
-0.0679198
0.444898
0.0446084
-0.245269
0.0242957
-0.164019
-0.0628818
0.0043204
0.367157
0.00224849
0.963047
-0.00763633
1.42327
-0.0213555
1.77893
-0.0386331
2.11943
-0.0630552
2.46433
-0.0963616
2.85212
-0.14244
3.30016
-0.206928
3.81298
-0.319556
4.46223
-0.577936
4.8474
-1.07316
5.96352
-1.26255
6.58954
-1.27062
5.6748
-1.05066
4.2451
-0.459753
2.13636
-0.0186591
0.00380387
-0.00676876
-0.25716
0.00476502
-0.175552
-0.0581168
0.00868473
0.358473
0.0100753
0.961657
0.00293761
1.43041
-0.0112724
1.79314
-0.0303783
2.13853
-0.0560773
2.49002
-0.0900688
2.88612
-0.135858
3.34595
-0.201279
3.8784
-0.318845
4.57979
-0.597794
5.12635
-1.0485
6.41423
-1.17199
6.71303
-1.15741
5.66021
-0.896795
3.98448
-0.262834
1.50239
-0.0707398
-0.18829
-0.0389581
-0.288941
-0.0144115
-0.200099
-0.0725282
0.0113444
0.347128
0.0157584
0.957243
0.0106227
1.43555
0.000464646
1.80329
-0.0177124
2.15671
-0.0419038
2.51422
-0.0751119
2.91932
-0.121601
3.39244
-0.188291
3.94509
-0.311192
4.70269
-0.598589
5.41375
-0.986253
6.80189
-1.0514
6.77818
-0.979645
5.58846
-0.675812
3.68065
-0.0703185
0.896901
0.0149428
-0.273551
0.000226295
-0.274225
-0.00165214
-0.19822
-0.0741804
0.0185194
0.328609
0.0302131
0.945549
0.0290237
1.43673
0.0177781
1.81454
-0.000449247
2.17494
-0.0234545
2.53722
-0.0559414
2.95181
-0.100305
3.4368
-0.164822
4.00961
-0.28603
4.8239
-0.565594
5.69331
-0.872335
7.10863
-0.906022
6.81187
-0.804949
5.48739
-0.445119
3.32082
0.0683931
0.383389
0.078339
-0.283497
0.0581386
-0.254024
0.0224792
-0.162561
-0.0517011
0.0242299
0.304379
0.042133
0.927646
0.0450358
1.43383
0.0383262
1.82125
0.0260654
2.1872
0.00480332
2.55848
-0.0248293
2.98144
-0.0669688
3.47894
-0.128806
4.07145
-0.245008
4.9401
-0.494584
5.94289
-0.715147
7.32919
-0.745424
6.84214
-0.63881
5.38077
-0.306584
2.9886
-0.00137555
0.0781805
0.0188377
-0.303711
0.0300278
-0.265214
0.0155036
-0.148037
-0.0361976
0.0352415
0.269137
0.0654249
0.897462
0.076527
1.42273
0.0731448
1.82463
0.0620959
2.19825
0.0426828
2.5779
0.0153306
3.0088
-0.0225775
3.51685
-0.0775638
4.12643
-0.176655
5.0392
-0.379818
6.14605
-0.536476
7.48585
-0.55668
6.86235
-0.459513
5.2836
-0.180984
2.71007
-0.0692756
-0.0335278
-0.0534886
-0.319498
-0.0219037
-0.296799
-0.00350036
-0.16644
-0.0396979
0.0446638
0.224474
0.0869728
0.855153
0.106915
1.40279
0.111329
1.82022
0.107141
2.20244
0.0933129
2.59172
0.0724682
3.02964
0.0406028
3.54872
-0.0098525
4.17689
-0.0851052
5.11445
-0.222064
6.28301
-0.312718
7.57651
-0.326009
6.87564
-0.26716
5.22475
-0.0666094
2.50952
-0.0848402
-0.0152969
-0.0705892
-0.333749
-0.0270606
-0.340328
0.00556017
-0.199061
-0.0341377
0.0581719
0.166302
0.120824
0.792501
0.157574
1.36604
0.170113
1.80768
0.170146
2.2024
0.160005
2.60187
0.145118
3.04453
0.123001
3.57084
0.0884511
4.21144
0.0418265
5.16107
-0.0126857
6.33752
-0.0481436
7.61197
-0.0529206
6.88041
-0.031843
5.20368
0.0149918
2.46268
-0.132069
0.131764
-0.120984
-0.344834
-0.0496379
-0.411674
0.0186848
-0.267383
-0.0154529
0.0602751
0.106027
0.150625
0.702152
0.206898
1.30976
0.233588
1.78099
0.245133
2.19086
0.244413
2.60259
0.238191
3.05075
0.226549
3.58248
0.209676
4.22831
0.190447
5.1803
0.244861
6.28311
0.290941
7.56589
0.279557
6.8918
0.132996
5.35024
-0.145141
2.74082
-0.423197
0.40982
-0.44034
-0.327691
-0.324589
-0.527425
-0.13997
-0.452002
-0.155423
0.0502704
0.0557563
0.184091
0.568331
0.27988
1.21398
0.325875
1.73499
0.345912
2.17082
0.353187
2.59531
0.353787
3.05015
0.356676
3.57959
0.361244
4.22375
0.379417
5.16213
0.527338
6.13519
0.680238
7.41298
0.676115
6.89592
0.511267
5.51509
-0.00200877
3.25409
-0.541928
0.949739
-0.706542
-0.163077
-0.554907
-0.67906
-0.297212
-0.709698
-0.452635
0.0344678
0.0212885
0.218968
0.383831
0.344842
1.0881
0.421532
1.6583
0.463119
2.12923
0.486571
2.57186
0.494409
3.04231
0.509884
3.56411
0.539198
4.19443
0.601688
5.09964
0.866222
5.87065
1.25412
7.02509
1.50528
6.64476
1.64722
5.37315
1.23982
3.6615
0.47158
1.71798
-0.09322
0.401724
-0.353434
-0.418846
-0.257939
-0.805192
-0.710574
0.030824
-0.00953548
0.237145
0.177511
0.44815
0.877095
0.562648
1.54381
0.613099
2.07878
0.646595
2.53836
0.668687
3.02022
0.695894
3.53691
0.749539
4.14079
0.868497
4.98068
1.24174
5.49741
1.90085
6.36597
2.27021
6.2754
2.50167
5.1417
2.36884
3.79432
1.74973
2.33708
1.11467
1.03678
0.487099
0.208729
0.142515
-0.460609
-0.568059
0.0256408
-0.0351762
0.162663
0.040489
0.493809
0.545949
0.689089
1.34853
0.789245
1.97863
0.838289
2.48932
0.872919
2.98559
0.901705
3.50812
0.977325
4.06517
1.119
4.839
1.50577
5.11065
2.294
5.57774
2.68587
5.88353
2.87075
4.95682
2.75575
3.90932
2.2634
2.82943
1.61919
1.68099
1.04903
0.778895
0.442882
0.145537
-0.125176
0.00425594
-0.0394322
0.0823931
-0.0376481
0.414298
0.214044
0.70753
1.05529
0.841633
1.84452
0.883845
2.44711
0.892822
2.97661
0.876911
3.52403
0.874964
4.06711
0.917931
4.79604
1.06967
4.95891
1.50842
5.13899
1.68297
5.70898
1.72226
4.91753
1.64025
3.99133
1.40841
3.06128
1.02814
2.06126
0.63762
1.16941
0.259854
0.523303
0.134677
0.00398582
-0.043418
0.0455011
-0.0791634
0.223289
0.0362557
0.539923
0.738659
0.709359
1.67509
0.76456
2.39191
0.781742
2.95943
0.777534
3.52824
0.760962
4.08368
0.781367
4.77563
0.854086
4.88619
1.14364
4.84944
1.33193
5.52069
1.3402
4.90925
1.27756
4.05398
1.11803
3.2208
0.831292
2.348
0.518841
1.48186
0.219958
0.822186
0.354636
0.00478986
-0.0482078
0.0241288
-0.0985023
0.0971361
-0.0367516
0.370472
0.465324
0.562983
1.48258
0.647979
2.30691
0.663302
2.94411
0.660466
3.53108
0.63627
4.10788
0.63379
4.77811
0.663192
4.85679
0.831004
4.68163
1.00864
5.34306
1.00391
4.91398
0.943913
4.11397
0.823885
3.34083
0.624305
2.54758
0.385418
1.72075
0.15467
1.05293
0.509305
-0.00777296
-0.0404349
-0.00766256
-0.0986127
0.0259417
-0.0703559
0.235251
0.256015
0.422538
1.29529
0.520155
2.20929
0.546562
2.9177
0.547825
3.52981
0.520856
4.13485
0.501278
4.79769
0.505483
4.85258
0.605039
4.58207
0.736442
5.21165
0.727535
4.92288
0.664295
4.17721
0.56884
3.43629
0.42834
2.68808
0.253888
1.8952
0.0917845
1.21504
0.60109
-0.0148321
-0.0256027
-0.0100459
-0.103399
0.0172896
-0.0976915
0.151223
0.122082
0.322158
1.12435