/*--------------------------------*- C++ -*----------------------------------*\
| =========                 |                                                 |
| \\      /  F ield         | OpenFOAM: The Open Source CFD Toolbox           |
|  \\    /   O peration     | Version:  v2012                                 |
|   \\  /    A nd           | Website:  www.openfoam.com                      |
|    \\/     M anipulation  |                                                 |
\*---------------------------------------------------------------------------*/
FoamFile
{
    version     2.0;
    format      ascii;
    class       surfaceScalarField;
    location    "75";
    object      phi;
}
// * * * * * * * * * * * * * * * * * * * * * * * * * * * * * * * * * * * * * //

dimensions      [0 3 -1 0 0 0 0];
oriented        oriented;


internalField   nonuniform List<scalar> 
4262
(
0.10713
0.470858
0.0955647
0.705151
0.0693706
0.858497
0.0473378
1.0208
0.0309356
1.21492
0.0197108
1.44944
0.012264
1.73331
0.00699123
2.07631
0.00302405
2.48921
-0.000802026
2.98612
-0.00453648
2.98603
-0.00815249
2.48886
-0.0130817
2.07597
-0.0202397
1.73302
-0.0311661
1.44915
-0.0472031
1.21455
-0.0689287
1.02049
-0.0951929
0.858567
-0.107066
0.705459
0.470922
0.112855
0.358003
0.135238
0.682768
0.120334
0.873401
0.0978031
1.04333
0.0745733
1.23815
0.0528631
1.47115
0.0345105
1.75166
0.0203769
2.09044
0.00912307
2.50046
-0.00086314
2.9961
-0.0110116
2.99618
-0.0224886
2.50034
-0.0366044
2.09008
-0.054834
1.75125
-0.0766253
1.47094
-0.100374
1.2383
-0.123573
1.04369
-0.137055
0.87205
-0.113582
0.681985
0.35734
0.0920362
0.265967
0.124952
0.649852
0.121067
0.877287
0.104729
1.05966
0.086027
1.25685
0.0668284
1.49035
0.0477761
1.77072
0.0295784
2.10864
0.0128923
2.51715
-0.0030222
3.01202
-0.0184528
3.01161
-0.034212
2.5161
-0.0517386
2.10761
-0.070248
1.76976
-0.088615
1.4893
-0.105792
1.25548
-0.119839
1.05773
-0.125262
0.877473
-0.0923727
0.649096
0.264968
0.0639311
0.202036
0.104696
0.609086
0.106446
0.875537
0.0950769
1.07103
0.081173
1.27075
0.0664614
1.50506
0.0503775
1.7868
0.0333079
2.12571
0.0157008
2.53476
-0.00297328
3.03069
-0.0217956
3.03043
-0.0393675
2.53367
-0.0558113
2.12405
-0.0709264
1.78488
-0.0846603
1.50304
-0.0983424
1.26916
-0.110107
1.0695
-0.107088
0.874455
-0.0649282
0.606936
0.20004
0.0374533
0.164583
0.0806472
0.565893
0.0908575
0.865327
0.083597
1.07829
0.0708974
1.28345
0.0589223
1.51704
0.0457452
1.79998
0.030596
2.14086
0.0134937
2.55186
-0.00561405
3.0498
-0.0240456
3.04886
-0.0397007
2.54932
-0.0535645
2.13792
-0.0657181
1.79703
-0.0770033
1.51432
-0.0889168
1.28108
-0.09524
1.07582
-0.0833653
0.86258
-0.0384549
0.562026
0.161585
0.0194278
0.145155
0.0570775
0.528243
0.0724032
0.850001
0.0702681
1.08043
0.0614817
1.29224
0.0506699
1.52785
0.0396149
1.81103
0.0271185
2.15336
0.0120727
2.56691
-0.00576598
3.06764
-0.0234613
3.06655
-0.0380606
2.56392
-0.0495435
2.1494
-0.0593273
1.80681
-0.0690783
1.52407
-0.0766763
1.28867
-0.0774347
1.07658
-0.0601952
0.84534
-0.0204409
0.522271
0.141144
0.0105775
0.134578
0.0421981
0.496622
0.0582194
0.83398
0.058402
1.08025
0.0521102
1.29853
0.0425569
1.53741
0.031936
1.82165
0.020281
2.16501
0.0067991
2.58039
-0.00903588
3.08347
-0.0240809
3.0816
-0.0356545
2.5755
-0.0454054
2.15915
-0.0543321
1.81574
-0.0622392
1.53198
-0.0667269
1.29316
-0.0646736
1.07453
-0.0461415
0.826808
-0.0117796
0.487909
0.129364
0.00650798
0.12807
0.0327363
0.470394
0.0488545
0.817862
0.0502629
1.07884
0.0451316
1.30366
0.0367629
1.54577
0.0271959
1.83122
0.0165024
2.1757
0.00453931
2.59235
-0.0097175
3.09773
-0.0235742
3.09546
-0.0345307
2.58645
-0.0435928
2.16821
-0.0510917
1.82324
-0.0574871
1.53838
-0.0605969
1.29627
-0.0568492
1.07078
-0.0375209
0.80748
-0.00795588
0.458344
0.121408
0.004658
0.123412
0.0263644
0.448688
0.0420434
0.802183
0.0440541
1.07683
0.039286
1.30843
0.0314636
1.5536
0.0220572
1.84063
0.0110336
2.18673
-0.00107866
2.60446
-0.0139207
3.11057
-0.0253245
3.10686
-0.0348191
2.59595
-0.0430719
2.17646
-0.0500013
1.83017
-0.0553382
1.54371
-0.0574282
1.29836
-0.0522033
1.06555
-0.0323151
0.787592
-0.00646019
0.432489
0.114948
0.00364939
0.119762
0.0213721
0.430965
0.0362516
0.787303
0.038763
1.07432
0.0342341
1.31296
0.0267397
1.56109
0.0179015
1.84946
0.00804105
2.19659
-0.00288085
2.61538
-0.0153436
3.12304
-0.0273554
3.11887
-0.0368077
2.6054
-0.0440446
2.1837
-0.0497789
1.8359
-0.0543363
1.54827
-0.0554505
1.29948
-0.0489228
1.05903
-0.0286844
0.767354
-0.00587658
0.409682
0.109072
0.00298372
0.116779
0.017308
0.41664
0.0311037
0.773508
0.0339938
1.07143
0.0297494
1.3172
0.0224979
1.56834
0.0137356
1.85823
0.00327423
2.20705
-0.00885434
2.62751
-0.0212375
3.13542
-0.0315996
3.12923
-0.0395435
2.61334
-0.0460676
2.19023
-0.0512447
1.84108
-0.0548252
1.55185
-0.0547135
1.29936
-0.0466059
1.05092
-0.026112
0.74686
-0.00566556
0.389235
0.103406
0.00225409
0.114524
0.0134195
0.405475
0.0256044
0.761323
0.0283418
1.06869
0.0240874
1.32146
0.0167572
1.57567
0.00800156
1.86698
-0.00171691
2.21677
-0.0120891
2.63789
-0.0236997
3.14703
-0.034623
3.14016
-0.0427492
2.62147
-0.0484037
2.19588
-0.0526403
1.84532
-0.0552776
1.55449
-0.0545119
1.2986
-0.0449795
1.04139
-0.0242847
0.726165
-0.00554696
0.370498
0.097859
0.00157997
0.112944
0.0101602
0.396895
0.0207331
0.75075
0.0232055
1.06622
0.0189313
1.32573
0.0117414
1.58286
0.00308983
1.87563
-0.00701934
2.22688
-0.0188085
2.64967
-0.0313934
3.15961
-0.0412937
3.15006
-0.047808
2.62798
-0.0524286
2.2005
-0.0557643
1.84865
-0.0572705
1.55599
-0.0554719
1.2968
-0.0444588
1.03037
-0.0232673
0.704973
-0.00554143
0.352772
0.0923176
0.000730948
0.112214
0.00672775
0.390898
0.0154766
0.742001
0.017278
1.06441
0.0125752
1.33044
0.00482478
1.59061
-0.00450237
1.88496
-0.0148258
2.2372
-0.0256482
2.6605
-0.0366746
3.17064
-0.0461748
3.15956
-0.0525475
2.63436
-0.0564183
2.20437
-0.0591509
1.85138
-0.0597601
1.5566
-0.0567379
1.29378
-0.0442913
1.01793
-0.0226317
0.683314
-0.00552738
0.335667
0.0867902
-1.0677e-05
0.112224
0.00361117
0.387276
0.00994307
0.735669
0.0107338
1.06362
0.0056297
1.33554
-0.00228766
1.59853
-0.0116985
1.89437
-0.0222131
2.24772
-0.033817
2.6721
-0.0463383
3.18316
-0.0556967
3.16892
-0.0605148
2.63917
-0.06322
2.20708
-0.0647348
1.8529
-0.0642255
1.55609
-0.0596092
1.28916
-0.045268
1.00359
-0.0226504
0.660696
-0.00562818
0.318645
0.081162
-0.000916033
0.11314
0.000237516
0.386123
0.00458867
0.731318
0.00425171
1.06396
-0.00173173
1.34152
-0.0107486
1.60755
-0.021305
1.90493
-0.0328536
2.25926
-0.0448892
2.68414
-0.055712
3.19399
-0.0631066
3.17631
-0.0676842
2.64375
-0.0699354
2.20933
-0.0709355
1.8539
-0.069592
1.55475
-0.0632163
1.28278
-0.046895
0.987264
-0.0231442
0.636945
-0.00582169
0.301323
0.0753404
-0.00193997
0.11508
-0.00326774
0.38745
-0.00220032
0.730251
-0.00419307
1.06595
-0.0109962
1.34833
-0.0205927
1.61714
-0.0316657
1.916
-0.043641
2.27124
-0.0557884
2.69628
-0.0675222
3.20572
-0.0760403
3.18483
-0.0796556
2.64737
-0.0806243
2.2103
-0.0800837
1.85336
-0.0769759
1.55164
-0.0686043
1.27441
-0.0497711
0.968431
-0.0242504
0.611425
-0.00613626
0.283208
0.0692041
-0.00322608
0.118306
-0.00691582
0.39114
-0.00904184
0.732377
-0.0129671
1.06988
-0.0211076
1.35647
-0.0321575
1.62819
-0.0447265
1.92857
-0.05822
2.28473
-0.0719002
2.70996
-0.0838952
3.21771
-0.0900061
3.19094
-0.0919839
2.64934
-0.091617
2.20993
-0.0901384
1.85188
-0.086131
1.54764
-0.0752723
1.26355
-0.053438
0.946597
-0.0258097
0.583796
-0.00654406
0.263943
0.06266
-0.00459169
0.122898
-0.011368
0.397916
-0.0170752
0.738084
-0.023878
1.07668
-0.0333048
1.36589
-0.0456515
1.64054
-0.0594076
1.94233
-0.0739504
2.29928
-0.08797
2.72398
-0.0992954
3.22904
-0.105619
3.19726
-0.107656
2.65138
-0.10712
2.20939
-0.103877
1.84864
-0.0974186
1.54118
-0.0838397
1.24998
-0.0585107
0.921268
-0.0279407
0.553226
-0.0070422
0.243044
0.0556178
-0.00609572
0.128994
-0.0163451
0.408166
-0.0260951
0.747834
-0.0359603
1.08655
-0.0477719
1.37771
-0.0622395
1.65501
-0.0780685
1.95815
-0.0944959
2.3157
-0.110148
2.73964
-0.122565
3.24146
-0.12803
3.20273
-0.127424
2.65078
-0.123878
2.20585
-0.119175
1.84393
-0.11133
1.53333
-0.0940493
1.2327
-0.0642574
0.891476
-0.0302919
0.519261
-0.00752307
0.220275
0.0480948
-0.00838404
0.137378
-0.0232925
0.423074
-0.0384679
0.763009
-0.0515999
1.09968
-0.0652467
1.39135
-0.0818326
1.67159
-0.0997538
1.97608
-0.118051
2.334
-0.134691
2.75628
-0.146789
3.25356
-0.150424
3.20636
-0.149545
2.6499
-0.14616
2.20246
-0.13964
1.83741
-0.128185
1.52188
-0.106699
1.21121
-0.0716001
0.856377
-0.0330987
0.480759
-0.00805408
0.195231
0.0400407
-0.0108172
0.148195
-0.0304883
0.442745
-0.051586
0.784107
-0.0698787
1.11797
-0.0874301
1.4089
-0.107237
1.6914
-0.128157
1.997
-0.148656
2.3545
-0.166097
2.77372
-0.177315
3.26477
-0.180153
3.2092
-0.176593
2.64634
-0.169637
2.19551
-0.160916
1.82869
-0.147147
1.50811
-0.120317
1.18438
-0.078741
0.814801
-0.0354604
0.437479
-0.00834947
0.16812
0.0316912
-0.015679
0.163874
-0.0430313
0.470098
-0.0712996
0.812375
-0.0947305
1.1414
-0.115861
1.43003
-0.139161
1.7147
-0.162479
2.02031
-0.184237
2.37626
-0.201831
2.79131
-0.21261
3.27555
-0.213224
3.20982
-0.207661
2.64077
-0.19986
2.18771
-0.188776
1.81761
-0.169935
1.48927
-0.136587
1.15103
-0.0872109
0.765425
-0.0377893
0.388057
-0.00854143
0.138872
0.0231498
-0.0197769
0.183651
-0.0559234
0.506244
-0.093641
0.850093
-0.124581
1.17234
-0.152008
1.45746
-0.180419
1.74311
-0.207148
2.04704
-0.230232
2.39934
-0.247088
2.80817
-0.254044
3.28251
-0.250329
3.2061
-0.242023
2.63246
-0.230778
2.17646
-0.216794
1.80363
-0.194116
1.46659
-0.152536
1.10945
-0.0936484
0.706537
-0.0385825
0.332991
-0.00817373
0.108463
0.0149761
-0.0332808
0.216931
-0.0831187
0.556082
-0.131733
0.898708
-0.169807
1.21042
-0.202662
1.49032
-0.234632
1.77508
-0.261841
2.07425
-0.28365
2.42115
-0.297307
2.82182
-0.300559
3.28576
-0.294263
3.19981
-0.282536
2.62074
-0.269534
2.16346
-0.252071
1.78616
-0.221356
1.43587
-0.169538
1.05763
-0.100272
0.637271
-0.0389359
0.271655
-0.00770999
0.0772372
0.00726608
-0.0477087
0.26464
-0.122526
0.6309
-0.187224
0.963405
-0.233313
1.25651
-0.27201
1.52901
-0.305275
1.80835
-0.330779
2.09976
-0.349056
2.43943
-0.358383
2.83115
-0.35605
3.28343
-0.342594
3.18635
-0.326359
2.6045
-0.308347
2.14545
-0.285235
1.76305
-0.247179
1.39782
-0.182733
0.993188
-0.100562
0.5551
-0.0363969
0.20749
-0.00721119
0.0480515
5.48799e-05
-0.0346857
0.299326
-0.0992588
0.695473
-0.15804
1.02219
-0.20709
1.30556
-0.252614
1.57454
-0.293351
1.84908
-0.3319
2.1383
-0.367813
2.47534
-0.397121
2.86046
-0.416337
3.30264
-0.422968
3.19298
-0.419085
2.60062
-0.408461
2.13482
-0.383377
1.73797
-0.325234
1.33967
-0.227099
0.895053
-0.114085
0.442086
-0.0400508
0.133455
-0.00829768
0.0162984
-0.00824279
-0.0127112
0.312037
-0.0487648
0.731526
-0.0920893
1.06551
-0.132627
1.34609
-0.172754
1.61466
-0.20946
1.88579
-0.244715
2.17356
-0.276231
2.50686
-0.300708
2.88493
-0.314557
3.31649
-0.314387
3.19281
-0.304859
2.59109
-0.287521
2.11749
-0.255969
1.70642
-0.20461
1.28831
-0.130775
0.821218
-0.058941
0.370253
-0.0218854
0.0963997
-0.00482874
-0.000758281
-0.0130715
-0.000874563
0.312912
-0.023829
0.754481
-0.053666
1.09535
-0.0855922
1.37802
-0.119315
1.64839
-0.152009
1.91848
-0.182504
2.20405
-0.208843
2.5332
-0.228082
2.90417
-0.236074
3.32449
-0.229732
3.18647
-0.214977
2.57634
-0.195601
2.09811
-0.169079
1.67989
-0.125162
1.2444
-0.0688227
0.764879
-0.0279095
0.329339
-0.0120906
0.0805809
-0.00333699
-0.00951188
-0.0164085
0.0016116
0.3113
-0.0143045
0.770397
-0.0360093
1.11705
-0.0605035
1.40251
-0.0868525
1.67474
-0.113977
1.94561
-0.139924
2.23
-0.162248
2.55552
-0.177557
2.91948
-0.181009
3.32794
-0.171142
3.1766
-0.155196
2.56039
-0.133608
2.07652
-0.101768
1.64805
-0.064761
1.20739
-0.0300649
0.730183
-0.0117848
0.311059
-0.00671457
0.0755107
-0.00256445
-0.013662
-0.018973
0.00547414
0.305826
-0.00187304
0.777744
-0.0207431
1.13592
-0.0429236
1.4247
-0.0660445
1.69786
-0.0891011
1.96867
-0.111121
2.25202
-0.129566
2.57396
-0.141036
2.93095
-0.141428
3.32833
-0.128741
3.16391
-0.107955
2.53961
-0.0831263
2.05169
-0.0582869
1.62321
-0.0280872
1.17719
-0.00309369
0.705189
0.00166445
0.306301
-0.0002755
0.0774506
-0.000876121
-0.0130614
-0.0198491
0.00511376
0.300712
-0.000891567
0.78375
-0.0164716
1.1515
-0.0345854
1.44281
-0.0539407
1.71721
-0.0737338
1.98846
-0.0925489
2.27084
-0.108321
2.58974
-0.117733
2.94037
-0.115544
3.32614
-0.100424
3.14879
-0.0801841
2.51937
-0.0560303
2.02754
-0.0257822
1.59297
-7.47e-05
1.15148
0.0131475
0.691967
0.0123501
0.307099
0.00548825
0.0843125
0.00101102
-0.00858417
-0.0188381
0.00557415
0.295138
0.00214277
0.787181
-0.0107195
1.16436
-0.0276944
1.45978
-0.0456274
1.73514
-0.0633976
2.00623
-0.0802941
2.28773
-0.0942349
2.60368
-0.101774
2.9479
-0.0984233
3.32279
-0.0832494
3.13362
-0.0601817
2.4963
-0.0330942
2.00045
-0.0113234
1.5712
0.00842268
1.13174
0.0198766
0.680513
0.0160541
0.310921
0.00797742
0.0923892
0.0018799
-0.00248664
-0.0169582
0.0028608
0.292277
-0.000114887
0.790157
-0.0113781
1.17563
-0.0257994
1.47421
-0.0416463
1.75099
-0.057883
2.02247
-0.0732589
2.30311
-0.0860103
2.61643
-0.093017
2.95491
-0.0889629
3.31874
-0.072894
3.11755
-0.0525183
2.47592
-0.0302233
1.97816
-0.00319547
1.54417
0.0158145
1.11273
0.021814
0.674514
0.0174972
0.315238
0.00892338
0.100963
0.00235779
0.00407895
-0.0146004
0.00240998
0.289867
0.00032334
0.792243
-0.0100217
1.18597
-0.0236668
1.48785
-0.0388912
1.76622
-0.0540927
2.03767
-0.0687488
2.31776
-0.0811178
2.6288
-0.0878154
2.96161
-0.0847569
3.31568
-0.0706755
3.10347
-0.0486964
2.45394
-0.0235725
1.95303
-0.0044231
1.52502
0.0122348
1.09607
0.0210449
0.665704
0.016587
0.319696
0.00879852
0.108751
0.00246223
0.0104152
-0.0121382
-0.000277993
0.290145
-0.00371541
0.795681
-0.0126719
1.19493
-0.0245135
1.49969
-0.038298
1.78
-0.0527555
2.05212
-0.0668583
2.33187
-0.0789617
2.6409
-0.0862513
2.9689
-0.0838949
3.31332
-0.0691303
3.0887
-0.0497113
2.43452
-0.0301797
1.9335
-0.00631274
1.50115
0.0108855
1.07887
0.0164204
0.660169
0.0141383
0.321978
0.00772774
0.115162
0.00227632
0.0158667
-0.00986184
-0.000638987
0.290784
-0.0040265
0.799068
-0.0128061
1.20371
-0.0243896
1.51128
-0.0378769
1.79349
-0.0517441
2.06599
-0.0656126
2.34574
-0.0781826
2.65347
-0.0864541
2.97717
-0.0860339
3.3129
-0.0740648
3.07674
-0.05346
2.41392
-0.0297346
1.90978
-0.0123837
1.4838
0.00289477
1.06359
0.0121849
0.650878
0.0107235
0.323439
0.00626134
0.119624
0.00195189
0.0201761
-0.00790994
-0.00192234
0.292707
-0.0072506
0.804396
-0.0155135
1.21197
-0.0259914
1.52175
-0.0383814
1.80588
-0.0518095
2.07942
-0.0657016
2.35963
-0.0786204
2.66639
-0.0877504
2.9863
-0.0885656
3.31372
-0.0765764
3.06475
-0.0583867
2.39573
-0.040091
1.89148
-0.017551
1.46126
-0.000659532
1.0467
0.0060712
0.644148
0.00753388
0.321977
0.00470275
0.122455
0.00159286
0.023286
-0.00631709
-0.00306154
0.295768
-0.00745529
0.80879
-0.0156469
1.22016
-0.0262385
1.53234
-0.0386168
1.81826
-0.051776
2.09258
-0.0656112
2.37346
-0.0790265
2.67981
-0.0895446
2.99682
-0.0933806
3.31755
-0.084701
3.05607
-0.0664494
2.37748
-0.0423902
1.86742
-0.0245538
1.44342
-0.0091788
1.03133
0.00200016
0.632969
0.00429498
0.319682
0.00330174
0.123448
0.00122142
0.0253663
-0.00509567
-0.00386988
0.299638
-0.00963628
0.814557
-0.0177009
1.22823
-0.0275488
1.54219
-0.0391313
1.82984
-0.0519541
2.1054
-0.0658908
2.3874
-0.0797781
2.69369
-0.0915096
3.00855
-0.0969937
3.32304
-0.089496
3.04857
-0.0729098
2.36089
-0.0540191
1.84853
-0.0294266
1.41883
-0.0105904
1.01249
-0.00127803
0.623656
0.00290906
0.315495
0.00250772
0.12385
0.00104274
0.0268313
-0.00405293
-0.00391729
0.303555
-0.00941752
0.820057
-0.0174793
1.23629
-0.027457
1.55217
-0.0391442
1.84153
-0.0518333
2.11809
-0.0657156
2.40128
-0.0800892
2.70807
-0.0934047
3.02187
-0.102083
3.33171
-0.0986671
3.04515
-0.0825353
2.34476
-0.0568487
1.82284
-0.0346177
1.3966
-0.0151329
0.993004
-0.00240953
0.610933
0.00147519
0.31161
0.00153701
0.123788
0.000103478
0.0282648
-0.00394946
-0.00410885
0.307664
-0.0107055
0.826653
-0.0187616
1.24435
-0.0281407
1.56155
-0.0391432
1.85253
-0.0514925
2.13044
-0.0654849
2.41527
-0.0804313
2.72301
-0.0948953
3.03633
-0.105196
3.34201
-0.103321
3.04328
-0.0894065
2.33085
-0.0688052
1.80224
-0.0380907
1.36589
-0.0118932
0.966807
0.00102491
0.598015
0.00710705
0.305528
0.00646092
0.124434
0.00281539
0.0319103
-0.00113407
-0.00399301
0.311657
-0.0101794
0.83284
-0.0180882
1.25225
-0.0275371
1.571
-0.0386196
1.86361
-0.0509083
2.14273
-0.0648742
2.42924
-0.0801755
2.73831
-0.0959075
3.05206
-0.10918
3.35529
-0.11199
3.04609
-0.0995967
2.31845
-0.0722656
1.77491
-0.0423325
1.33595
-0.0114427
0.935917
0.0109848
0.575587
0.016334
0.300179
0.00805602
0.132712
-0.00135825
0.0413246
-0.00249232
-0.00414362
0.315801
-0.0109159
0.839612
-0.0187049
1.26004
-0.0276118
1.57991
-0.0380575
1.87406
-0.0499897
2.15466
-0.0639814
2.44323
-0.0797219
2.75405
-0.0963794
3.06872
-0.111132
3.37004
-0.116038
3.05099
-0.106507
2.30892
-0.0854355
1.75384
-0.0465932
1.29711
-0.00446013
0.893784
0.0269132
0.544214
0.0483167
0.278775
0.0515886
0.12944
0.0299445
0.0629687
0.0274522
-0.00400655
0.319807
-0.0102197
0.845825
-0.0177156
1.26754
-0.0265915
1.58878
-0.0370486
1.88451
-0.0489152
2.16653
-0.0628127
2.45713
-0.0787074
2.76995
-0.0962916
3.0863
-0.113534
3.38728
-0.123108
3.06057
-0.116882
2.3027
-0.0908618
1.72782
-0.0534164
1.25967
-0.00404511
0.844412
0.0417252
0.498444
0.0730119
0.247489
0.0581161
0.144336
0.0249311
0.0961537
0.0523833
-0.00399524
0.323802
-0.0105678
0.852398
-0.0178867
1.27486
-0.0262158
1.59711
-0.0360799
1.89438
-0.0475393
2.17799
-0.0613298
2.47092
-0.0774959
2.78612
-0.0957556
3.10456
-0.114227
3.40575
-0.125031
3.07137
-0.123165
2.30083
-0.106466
1.71112
-0.0638946
1.21709
-0.00580711
0.786325
0.062996
0.429641
0.156464
0.154021
0.214105
0.0866949
0.188776
0.121483
0.241159
-0.00384472
0.327647
-0.00994698
0.8585
-0.0171436
1.28205
-0.0256963
1.60566
-0.0360305
1.90471
-0.0481034
2.19006
-0.0627783
2.4856
-0.0804014
2.80374
-0.101298
3.12546
-0.124454
3.42891
-0.142014
3.08893
-0.146048
2.30486
-0.126037
1.69111
-0.0862085
1.17727
-0.017831
0.717947
0.0428751
0.368935
-0.032151
0.229047
-0.35005
0.404594
-0.946897
0.71833
0.903218
-1.60896
-0.00376219
0.331409
-0.0101734
0.864911
-0.0173024
1.28918
-0.0255289
1.61389
-0.0355129
1.9147
-0.0475358
2.20208
-0.0626422
2.5007
-0.0813586
2.82245
-0.104136
3.14824
-0.130346
3.45512
-0.151935
3.11052
-0.161478
2.31441
-0.159411
1.68904
-0.123909
1.14176
-0.0831082
0.677147
-0.191234
0.477061
-0.693966
0.731779
-1.45989
1.17051
-2.06315
1.32159
1.21502
-2.37495
-0.00353337
0.334943
-0.00936001
0.870738
-0.0161942
1.29602
-0.0244367
1.62213
-0.0345881
1.92485
-0.0468978
2.21439
-0.0624547
2.51626
-0.082013
2.84201
-0.10671
3.17293
-0.137182
3.48559
-0.166462
3.1398
-0.18458
2.33252
-0.182336
1.6868
-0.156268
1.1157
-0.242971
0.76385
-0.752899
0.986988
-1.5667
1.54558
-2.12032
1.72414
-2.35666
1.55793
1.32814
-2.46978
-0.00344781
0.338391
-0.00935379
0.876644
-0.016049
1.30271
-0.0239347
1.63002
-0.0336904
1.9346
-0.0458762
2.22658
-0.0617401
2.53212
-0.0822744
2.86255
-0.108825
3.19948
-0.142675
3.51944
-0.177124
3.17425
-0.203157
2.35856
-0.220487
1.70413
-0.289246
1.18446
-0.668729
1.14333
-1.45158
1.76984
-2.03439
2.12839
-2.27214
1.96189
-2.38411
1.6699
1.39106
-2.44703
-0.00313761
0.341528
-0.00838627
0.881892
-0.0146845
1.30901
-0.0224892
1.63782
-0.0323898
1.9445
-0.044803
2.23899
-0.0610214
2.54834
-0.0822514
2.88378
-0.110576
3.22781
-0.148743
3.55761
-0.192079
3.21759
-0.230266
2.39674
-0.262223
1.73608
-0.446558
1.36879
-1.09966
1.79644
-1.79769
2.46787
-2.11178
2.44247
-2.25826
2.10837
-2.33987
1.75151
1.4573
-2.40611
-0.00315206
0.34468
-0.00868046
0.887421
-0.0150787
1.31541
-0.0227836
1.64553
-0.0326634
1.95438
-0.0451993
2.25153
-0.0618967
2.56504
-0.084228
2.90611
-0.114495
3.25808
-0.156207
3.59932
-0.205384
3.26676
-0.247283
2.43864
-0.330171
1.81897
-0.733446
1.77206
-1.49591
2.5589
-1.9633
2.93526
-2.16271
2.64188
-2.26838
2.21403
-2.34567
1.8288
1.52028
-2.40865
-0.00320354
0.347884
-0.00857154
0.892789
-0.0151823
1.32202
-0.0234836
1.65383
-0.0341645
1.96506
-0.0475958
2.26496
-0.0652803
2.58272
-0.0888148
2.92964
-0.121171
3.29043
-0.167334
3.64548
-0.223004
3.32243
-0.280996
2.49664
-0.465949
2.00393
-1.045
2.35111
-1.68183
3.19574
-1.95203
3.20545
-2.09802
2.78788
-2.21189
2.3279
-2.30565
1.92257
1.58176
-2.36714
-0.00334999
0.351234
-0.00953944
0.898978
-0.0167308
1.32921
-0.0253026
1.6624
-0.0361579
1.97592
-0.0499745
2.27878
-0.0684496
2.6012
-0.0934488
2.95464
-0.128006
3.32499
-0.177966
3.69544
-0.238633
3.3831
-0.320891
2.57889
-0.605026
2.28806
-1.2639
3.00998
-1.7493
3.68114
-1.95637
3.41252
-2.09525
2.92676
-2.21931
2.45196
-2.32935
2.03261
1.64048
-2.38807
-0.00327783
0.354512
-0.00914046
0.904841
-0.0165771
1.33665
-0.0259306
1.67175
-0.0377863
1.98778
-0.0526605
2.29365
-0.0722554
2.62079
-0.0985143
2.9809
-0.135109
3.36158
-0.18877
3.7491
-0.255622
3.44995
-0.378233
2.70151
-0.76841
2.67824
-1.4096
3.65117
-1.7583
4.02984
-1.93055
3.58477
-2.03207
3.02828
-2.12084
2.54074
-2.18725
2.09902
1.63303
-2.17981
-0.00331198
0.357824
-0.0102187
0.911748
-0.0183922
1.34482
-0.0280042
1.68137
-0.0399829
1.99975
-0.0551903
2.30886
-0.0755508
2.64115
-0.103322
3.00867
-0.142102
3.40036
-0.198328
3.80533
-0.274689
3.52632
-0.443759
2.87058
-0.901587
3.13606
-1.45879
4.20838
-1.71871
4.28976
-1.86977
3.73583
-1.96359
3.1221
-1.96403
2.54117
-1.89377
2.02876
1.5945
-1.85523
-0.0030837
0.360907
-0.00932854
0.917992
-0.0176167
1.35311
-0.02807
1.69182
-0.0411157
2.0128
-0.0572919
2.32503
-0.0784114
2.66227
-0.106607
3.03687
-0.145924
3.43968
-0.202125
3.86153
-0.28668
3.61087
-0.490072
3.07397
-0.984787
3.63078
-1.42489
4.64848
-1.58897
4.45385
-1.65551
3.80236
-1.65987
3.12646
-1.51237
2.39368
-1.01354
1.52993
0.580957
-0.00270677
0.363614
-0.0103413
0.925627
-0.0195523
1.36232
-0.0303187
1.70259
-0.0436752
2.02616
-0.0606201
2.34198
-0.0833098
2.68496
-0.114369
3.06793
-0.157875
3.48319
-0.220387
3.92404
-0.322743
3.71323
-0.576787
3.32801
-1.11994
4.17393
-1.47623
5.00477
-1.575
4.55261
-1.57316
3.80052
-1.46989
3.02319
-1.23145
2.15524
-0.629202
0.927682
-0.0482443
-0.00240826
0.366022
-0.00857535
0.931794
-0.0176747
1.37142
-0.0296384
1.71455
-0.0447681
2.04129
-0.0637022
2.36091
-0.0886953
2.70996
-0.122395
3.10163
-0.170201
3.531
-0.239454
3.99329
-0.361446
3.83522
-0.675675
3.64224
-1.23733
4.73559
-1.4958
5.26323
-1.5549
4.61172
-1.53272
3.77835
-1.3313
2.82177
-0.779784
1.60372
-0.108219
0.256116
-0.156463
-0.00147068
0.367493
-0.00926009
0.939584
-0.0193721
1.38153
-0.031503
1.72668
-0.0466177
2.0564
-0.0660621
2.38036
-0.0924827
2.73638
-0.129174
3.13832
-0.180972
3.58279
-0.258016
4.07034
-0.406407
3.98361
-0.779013
4.01485
-1.31452
5.2711
-1.49003
5.43874
-1.52067
4.64235
-1.43289
3.69057
-1.09788
2.48676
-0.312121
0.81796
0.0246914
-0.0806958
-0.131772
-0.000915086
0.368408
-0.00595912
0.944628
-0.0154332
1.39101
-0.0288136
1.74006
-0.0458658
2.07345
-0.0674886
2.40198
-0.0963776
2.76527
-0.13551
3.17745
-0.190363
3.63765
-0.276419
4.15639
-0.45022
4.15741
-0.88805
4.45268
-1.35857
5.74162
-1.47381
5.55398
-1.47706
4.6456
-1.25419
3.4677
-0.684576
1.91715
-0.0630818
0.196465
0.0299795
-0.173757
-0.101792
9.41541e-05
0.368314
-0.00582161
0.950543
-0.016115
1.4013
-0.0294413
1.75339
-0.0458283
2.08984
-0.0675873
2.42374
-0.0974342
2.79511
-0.139023
3.21904
-0.197102
3.69573
-0.292119
4.25141
-0.49307
4.35836
-0.980306
4.93991
-1.35296
6.11428
-1.41858
5.6196
-1.37241
4.59943
-1.0849
3.18019
-0.323271
1.15552
0.00324618
-0.130052
0.0140538
-0.184565
-0.0877384
0.00337959
0.364934
0.00116437
0.952759
-0.00870934
1.41117
-0.0231454
1.76782
-0.041379
2.10807
-0.0654414
2.4478
-0.0976138
2.82728
-0.141004
3.26243
-0.201921
3.75664
-0.305488
4.35498
-0.530815
4.58369
-1.04165
5.45075
-1.31717
6.38979
-1.35644
5.65887
-1.21872
4.4617
-0.770318
2.73179
-0.0702228
0.455426
0.0435878
-0.243863
0.0237432
-0.16472
-0.0639953
0.00430565
0.360629
0.00244342
0.954621
-0.00737213
1.42099
-0.0208333
1.78128
-0.0375241
2.12476
-0.0610983
2.47138
-0.0932566
2.85944
-0.138289
3.30746
-0.201784
3.82014
-0.312841
4.46603
-0.569352
4.8402
-1.06338
5.94478
-1.25256
6.57898
-1.2635
5.6698
-1.04573
4.24393
-0.460315
2.14638
-0.0183019
0.0134124
-0.00666016
-0.255504
0.00487189
-0.176252
-0.0591234
0.00871734
0.351911
0.0108075
0.952531
0.0050201
1.42678
-0.00796261
1.79427
-0.0269101
2.14371
-0.0522947
2.49676
-0.0861528
2.8933
-0.131681
3.35299
-0.196782
3.88524
-0.314584
4.58384
-0.590489
5.1161
-1.03956
6.39385
-1.16441
6.70383
-1.14789
5.65328
-0.890431
3.98647
-0.266287
1.52224
-0.0714774
-0.181397
-0.0392283
-0.287754
-0.0146051
-0.200875
-0.0737284
0.0113661
0.340545
0.016092
0.947805
0.0110548
1.43181
0.000898249
1.80442
-0.0166676
2.16128
-0.0398614
2.51995
-0.0719929
2.92543
-0.117547
3.39854
-0.183346
3.95104
-0.304217
4.70471
-0.589238
5.40112
-0.9763
6.78091
-1.04
6.76753
-0.974441
5.58772
-0.677127
3.68916
-0.0741619
0.919272
0.0120292
-0.267588
-0.00227325
-0.273451
-0.00274389
-0.200405
-0.0764723
0.0185382
0.322007
0.0310185
0.935324
0.0313349
1.4315
0.0212492
1.81451
0.00406349
2.17846
-0.0192128
2.54323
-0.0518352
2.95805
-0.0962131
3.44292
-0.160256
4.01508
-0.28151
4.82596
-0.557263
5.67688
-0.862762
7.08641
-0.899276
6.80404
-0.793209
5.48166
-0.439368
3.33532
0.0677101
0.412194
0.0792893
-0.279167
0.0592228
-0.253385
0.0218092
-0.162991
-0.0546631
0.0243205
0.297687
0.0426347
0.91701
0.0457574
1.42837
0.0392936
1.82097
0.0274
2.19036
0.00711411
2.56352
-0.0215254
2.98669
-0.0627686
3.48416
-0.12407
4.07638
-0.238448
4.94034
-0.4848
5.92323
-0.705522
7.30713
-0.73303
6.83155
-0.636813
5.38544
-0.29969
2.9982
0.0158104
0.0966932
0.0285425
-0.291899
0.0376676
-0.26251
0.0176192
-0.142943
-0.0370439
0.0352114
0.262475
0.0663728
0.885849
0.0793337
1.41541
0.0774372
1.82287
0.067046
2.20075
0.0475454
2.58302
0.0199092
3.01433
-0.0185062
3.52258
-0.0733081
4.13118
-0.173004
5.04003
-0.372351
6.12258
-0.526398
7.46118
-0.549223
6.85438
-0.4533
5.28952
-0.185292
2.73019
-0.0707412
-0.0178575
-0.0463056
-0.316335
-0.0151335
-0.293682
0.00175969
-0.159836
-0.0352842
0.0447349
0.21774
0.0877259
0.842858
0.108223
1.39492
0.112968
1.81812
0.109311
2.2044
0.0964071
2.59592
0.0764879
3.03425
0.0452336
3.55383
-0.00603231
4.18245
-0.0794278
5.11343
-0.216218
6.25937
-0.304929
7.54989
-0.316379
6.86583
-0.270462
5.2436
-0.118527
2.57825
-0.115059
-0.0213247
-0.0971492
-0.334245
-0.0601601
-0.330671
-0.0144992
-0.205497
-0.0497835
0.0579351
0.159805
0.121881
0.778912
0.161076
1.35572
0.175741
1.80346
0.176784
2.20336
0.166364
2.60634
0.150561
3.05005
0.127253
3.57714
0.0921435
4.21756
0.042147
5.16343
-0.00963581
6.31115
-0.0408261
7.58108
-0.0411475
6.86615
-0.0122957
5.21475
0.00237999
2.56358
-0.171816
0.152871
-0.165043
-0.341018
-0.102248
-0.393465
-0.0199008
-0.287844
-0.0696842
0.0594212
0.100384
0.151446
0.686888
0.209322
1.29785
0.236877
1.7759
0.248997
2.19124
0.24953
2.60581
0.24373
3.05585
0.232104
3.58877
0.213127
4.23654
0.191352
5.1852
0.232813
6.26969
0.291334
7.52256
0.325767
6.83172
0.30641
5.23411
0.164265
2.70572
-0.13067
0.447806
-0.198957
-0.272731
-0.134856
-0.457566
-0.0318977
-0.390803
-0.101582
0.0484242
0.0519596
0.184835
0.550477
0.28392
1.19876
0.333999
1.72582
0.355904
2.16934
0.363237
2.59847
0.361974
3.05712
0.36269
3.58805
0.363779
4.23545
0.374794
5.17418
0.524296
6.12019
0.673442
7.37341
0.685894
6.81926
0.491332
5.42867
0.00436873
3.19269
-0.34277
0.794944
-0.40279
-0.21271
-0.321814
-0.538542
-0.162438
-0.550179
-0.26402
0.0339338
0.0180258
0.218683
0.365727
0.349119
1.06833
0.428013
1.64693
0.470774
2.12658
0.495832
2.57342
0.504368
3.04858
0.517948
3.57447
0.541119
4.21228
0.595144
5.12016
0.811224
5.90411
1.12215
7.06249
1.2516
6.68981
1.24207
5.4382
0.74296
3.6918
0.0185602
1.51934
-0.396914
0.202764
-0.474913
-0.460543
-0.268092
-0.756999
-0.532112
0.030069
-0.0120432
0.231189
0.164607
0.452475
0.847041
0.575411
1.52399
0.63036
2.07163
0.663632
2.54014
0.684481
3.02773
0.70768
3.55127
0.75207
4.16789
0.845009
5.02722
1.16105
5.58807
1.71424
6.5093
2.04296
6.36109
2.27416
5.207
2.16364
3.80232
1.40773
2.27526
0.679041
0.931455
0.167438
0.0510599
-0.0430869
-0.546474
-0.575199
0.0221493
-0.0341925
0.152507
0.034249
0.493301
0.506247
0.696644
1.32065
0.804667
1.9636
0.858415
2.4864
0.894854
2.99129
0.919199
3.52693
0.980972
4.10612
1.10221
4.90598
1.46158
5.2287
2.21548
5.75539
2.59402
5.98255
2.77309
5.02792
2.63843
3.93698
2.13856
2.77513
1.48105
1.58896
0.891146
0.640963
0.32872
0.0159515
-0.246479
0.00142124
-0.0356137
0.0747486
-0.0390783
0.405935
0.17506
0.723622
1.00296
0.87279
1.81443
0.915384
2.4438
0.923595
2.98308
0.905557
3.54496
0.899448
4.11223
0.931925
4.8735
1.09136
5.06926
1.53252
5.31424
1.71139
5.80368
1.75882
4.98049
1.67126
4.02453
1.407
3.0394
0.993934
2.00203
0.583228
1.05167
0.251243
0.347937
0.00476426
0.00514712
-0.0407609
0.0427487
-0.0766799
0.199257
0.0185517
0.55089
0.651331
0.738686
1.62664
0.806018
2.37647
0.821277
2.96782
0.818326
3.54792
0.801052
4.1295
0.816286
4.85827
0.898009
4.98754
1.21122
5.00103
1.39034
5.62457
1.40857
4.96226
1.35126
4.08184
1.18422
3.20644
0.892548
2.2937
0.564624
1.37959
0.233553
0.679008
0.238317
-0.00174896
-0.0390119
0.00561573
-0.0840446
0.070541
-0.0463736
0.36972
0.352152
0.594937
1.40142
0.701232
2.27017
0.722534
2.94652
0.718171
3.55228
0.692658
4.15501
0.690438
4.86049
0.721149
4.95683
0.91271
4.80946
1.08088
5.4564
1.08112
4.96202
1.02796
4.13499
0.904744
3.32966
0.69427
2.50417
0.431972
1.64189
0.176865
0.934115
0.415182
-0.00633717
-0.0326747
-0.00611529
-0.0842665
0.0277089
-0.0801978
0.237362
0.142499
0.47259
1.16619
0.580793
2.16197
0.616988
2.91033
0.62029
3.54898
0.588818
4.18648
0.561442
4.88787
0.564734
4.95354
0.672438
4.70176
0.811451
5.31738
0.801189
4.97228
0.744457
4.19172
0.648872
3.42524
0.49999
2.65305
0.307918
1.83396
0.119255
1.12278
0.534437
0.000500812
-0.0331755
0.0106599
-0.0944256
0.0396216