/*--------------------------------*- C++ -*----------------------------------*\
| =========                 |                                                 |
| \\      /  F ield         | OpenFOAM: The Open Source CFD Toolbox           |
|  \\    /   O peration     | Version:  v2012                                 |
|   \\  /    A nd           | Website:  www.openfoam.com                      |
|    \\/     M anipulation  |                                                 |
\*---------------------------------------------------------------------------*/
FoamFile
{
    version     2.0;
    format      ascii;
    class       surfaceScalarField;
    location    "45";
    object      phi;
}
// * * * * * * * * * * * * * * * * * * * * * * * * * * * * * * * * * * * * * //

dimensions      [0 3 -1 0 0 0 0];
oriented        oriented;


internalField   nonuniform List<scalar> 
4262
(
0.107137
0.470851
0.0955713
0.705152
0.0693833
0.858491
0.0473635
1.02078
0.0309923
1.21489
0.0198074
1.4494
0.012437
1.73323
0.00728198
2.07619
0.00337647
2.48915
-0.000189902
2.98586
-0.00377041
2.98587
-0.00769504
2.48917
-0.0128381
2.07618
-0.0200961
1.73312
-0.0310951
1.44922
-0.0472197
1.21464
-0.0690233
1.02057
-0.0952702
0.85855
-0.107085
0.7054
0.470904
0.112893
0.357957
0.135316
0.68273
0.12043
0.873377
0.0979039
1.04331
0.0746798
1.23811
0.0529607
1.47112
0.0345166
1.75168
0.0202275
2.09048
0.00885958
2.50052
-0.00136269
2.99608
-0.0115467
2.99606
-0.0226797
2.5003
-0.036678
2.09018
-0.0547653
1.75121
-0.0764156
1.47087
-0.1
1.23823
-0.123015
1.04358
-0.136787
0.872322
-0.113491
0.682104
0.357412
0.0920901
0.265867
0.125062
0.649758
0.12123
0.877209
0.104966
1.05957
0.0863148
1.25676
0.0672195
1.49022
0.0483701
1.77053
0.0304063
2.10844
0.0139686
2.51695
-0.00186669
3.01192
-0.0175469
3.01174
-0.0336872
2.51644
-0.0512347
2.10773
-0.0698549
1.76983
-0.0884012
1.48942
-0.105834
1.25566
-0.120251
1.058
-0.125328
0.877399
-0.0923642
0.64914
0.265048
0.0640099
0.201857
0.104878
0.60889
0.106692
0.875395
0.0953361
1.07093
0.08141
1.27069
0.0666372
1.50499
0.050523
1.78664
0.0334131
2.12555
0.0157023
2.53467
-0.00303674
3.03066
-0.0214777
3.03018
-0.0385649
2.53353
-0.0549905
2.12415
-0.0702737
1.78511
-0.0841726
1.50331
-0.0978683
1.26935
-0.109596
1.06973
-0.106731
0.874534
-0.0647664
0.607176
0.200282
0.0375335
0.164324
0.0808797
0.565544
0.0912481
0.865026
0.0841351
1.07804
0.0715857
1.28324
0.0597505
1.51683
0.0467401
1.79965
0.0318508
2.14044
0.0150886
2.55143
-0.00390111
3.04964
-0.0226384
3.04892
-0.0387564
2.54965
-0.0528045
2.1382
-0.0650872
1.79739
-0.0764875
1.51471
-0.0884716
1.28134
-0.094806
1.07606
-0.0830606
0.862789
-0.0383269
0.562442
0.161955
0.0195219
0.144802
0.057357
0.527709
0.0727823
0.849601
0.0707206
1.0801
0.0620543
1.2919
0.0513236
1.52756
0.040133
1.81084
0.0274973
2.15308
0.0123826
2.56654
-0.00530438
3.06733
-0.0225341
3.06614
-0.0367405
2.56385
-0.0483598
2.14982
-0.0584719
1.80751
-0.0681802
1.52442
-0.0758017
1.28896
-0.0767065
1.07697
-0.0597647
0.845847
-0.0203141
0.522992
0.14164
0.0106685
0.134134
0.0425124
0.495865
0.0588052
0.833308
0.0592059
1.0797
0.0530928
1.29802
0.0437921
1.53686
0.0335435
1.82109
0.0222678
2.16435
0.00923899
2.57957
-0.00654008
3.08311
-0.0220202
3.08162
-0.0341058
2.57594
-0.0440031
2.15972
-0.0527989
1.8163
-0.0608599
1.53248
-0.0655917
1.29369
-0.0637659
1.07514
-0.0455643
0.827645
-0.0116028
0.48903
0.130038
0.00661946
0.127514
0.0330786
0.469406
0.0493729
0.817014
0.0509347
1.07814
0.0459532
1.303
0.0376827
1.54513
0.0281861
1.83059
0.0174296
2.17511
0.00539833
2.5916
-0.00843266
3.09694
-0.0216555
3.09485
-0.0323103
2.58659
-0.0415577
2.16896
-0.0493246
1.82407
-0.0559147
1.53907
-0.0592199
1.297
-0.0557819
1.0717
-0.0369037
0.808767
-0.0077864
0.459913
0.122251
0.00476815
0.122746
0.0268021
0.447372
0.0428148
0.801001
0.0450223
1.07593
0.0404416
1.30758
0.0328965
1.55267
0.0240018
1.83948
0.0137589
2.18535
0.00232302
2.60304
-0.0103625
3.10963
-0.0222727
3.10676
-0.0321858
2.59651
-0.0403964
2.17717
-0.0473275
1.831
-0.0530009
1.54475
-0.0555678
1.29956
-0.0508063
1.06694
-0.0314734
0.789434
-0.00621044
0.43465
0.116041
0.00386028
0.118886
0.0220245
0.429207
0.037467
0.785559
0.040452
1.07295
0.0362271
1.31181
0.0289347
1.55997
0.0202297
1.84819
0.0103007
2.19528
-0.000805215
2.61414
-0.0129347
3.12176
-0.0242658
3.11809
-0.033368
2.60561
-0.0408956
2.1847
-0.0470216
1.83713
-0.0517645
1.54949
-0.0532083
1.30101
-0.0470677
1.0608
-0.0275918
0.769958
-0.0055661
0.412624
0.110475
0.00308104
0.115805
0.0176177
0.414671
0.0316749
0.771501
0.0349283
1.0697
0.0312223
1.31551
0.0245535
1.56663
0.0163896
1.85635
0.00669135
2.20498
-0.00441793
2.62525
-0.0163406
3.13368
-0.0270525
3.1288
-0.0354937
2.61405
-0.0421834
2.19139
-0.0475085
1.84245
-0.0512572
1.55324
-0.0516149
1.30137
-0.0441377
1.05332
-0.0246455
0.750466
-0.00523722
0.393216
0.105237
0.00240868
0.113396
0.014053
0.403026
0.0269192
0.758635
0.0302881
1.06633
0.0265692
1.31923
0.0198877
1.57332
0.0117963
1.86444
0.00248521
2.21429
-0.00794106
2.63568
-0.0194681
3.14521
-0.0299878
3.13932
-0.0379396
2.622
-0.0436274
2.19708
-0.0478452
1.84667
-0.0506576
1.55605
-0.0500986
1.30081
-0.0415242
1.04475
-0.0223109
0.731253
-0.00499324
0.375898
0.100244
0.00172996
0.111666
0.0105559
0.3942
0.0215094
0.747682
0.024433
1.0634
0.0207308
1.32293
0.0141052
1.57994
0.00603001
1.87252
-0.00315155
2.22347
-0.0136525
2.64618
-0.0249557
3.15651
-0.0343131
3.14868
-0.0407028
2.62839
-0.0453696
2.20175
-0.048939
1.85024
-0.0508138
1.55793
-0.0494838
1.29948
-0.0399042
1.03517
-0.0207425
0.712091
-0.00484335
0.359999
0.0954009
0.000918898
0.110747
0.00724116
0.387878
0.0165266
0.738396
0.0188676
1.06106
0.014627
1.32717
0.00762019
1.58695
-0.000520286
1.88066
-0.00960655
2.23256
-0.0192637
2.65584
-0.0294416
3.16669
-0.0380629
3.1573
-0.0437348
2.63406
-0.047377
2.20539
-0.0502862
1.85315
-0.0515318
1.55917
-0.0495148
1.29746
-0.0387726
1.02443
-0.0196143
0.692933
-0.00475993
0.345145
0.090641
0.000125415
0.110622
0.00401404
0.38399
0.0108134
0.731597
0.0122635
1.05961
0.00789516
1.33154
0.000654606
1.59419
-0.00791073
1.88922
-0.0170823
2.24173
-0.0271133
2.66587
-0.0375929
3.17717
-0.0452874
3.16499
-0.0493513
2.63813
-0.0519227
2.20796
-0.0536886
1.85491
-0.0536424
1.55913
-0.0501534
1.29397
-0.0382168
1.01249
-0.018918
0.673634
-0.00471258
0.330939
0.0859284
-0.000789274
0.111411
0.000489559
0.382711
0.00541764
0.726669
0.00604573
1.05898
0.00103733
1.33655
-0.0068514
1.60208
-0.0159936
1.89837
-0.0258586
2.2516
-0.0357219
2.67573
-0.0447169
3.18616
-0.0512696
3.17155
-0.0548526
2.64171
-0.0565954
2.2097
-0.0575408
1.85586
-0.0567221
1.55831
-0.0518485
1.2891
-0.0382824
0.998924
-0.0186543
0.654006
-0.00475366
0.317039
0.0811747
-0.00165327
0.113064
-0.00268561
0.383743
-0.00100846
0.724992
-0.00220214
1.06018
-0.00778236
1.34213
-0.0159461
1.61024
-0.0256192
1.90804
-0.0360469
2.26202
-0.0466399
2.68633
-0.0560533
3.19558
-0.0618647
3.17736
-0.0641215
2.64397
-0.0644948
2.21008
-0.0634591
1.85482
-0.0607512
1.5556
-0.0541741
1.28252
-0.0392679
0.984018
-0.019103
0.633841
-0.00501638
0.302952
0.0761584
-0.00298466
0.116049
-0.00639727
0.387156
-0.00812288
0.726717
-0.0108614
1.06292
-0.0174656
1.34873
-0.0266837
1.61946
-0.0370997
1.91846
-0.0482643
2.27319
-0.0589776
2.69704
-0.0673105
3.20391
-0.0713532
3.1814
-0.072314
2.64493
-0.0712138
2.20897
-0.0697088
1.85332
-0.0661411
1.55203
-0.0575591
1.27394
-0.0408042
0.967263
-0.0197868
0.612824
-0.0052876
0.288453
0.0708708
-0.00439716
0.120446
-0.010887
0.393645
-0.016113
0.731943
-0.0220705
1.06887
-0.0298801
1.35654
-0.0398497
1.62943
-0.051168
1.92977
-0.0630808
2.2851
-0.0745488
2.70851
-0.0836807
3.21304
-0.0877017
3.18542
-0.087349
2.64458
-0.0842483
2.20587
-0.0794516
1.84852
-0.0730424
1.54562
-0.0623444
1.26324
-0.0434843
0.948403
-0.0211175
0.590457
-0.0057516
0.273087
0.0651192
-0.00580069
0.126247
-0.0158543
0.403699
-0.0251027
0.741192
-0.0333693
1.07714
-0.0433206
1.36649
-0.055737
1.64185
-0.0688232
1.94286
-0.0819172
2.2982
-0.0934861
2.72008
-0.10097
3.22053
-0.101584
3.18603
-0.0981218
2.64111
-0.0933086
2.20106
-0.0883647
1.84358
-0.0811599
1.53842
-0.0679491
1.25003
-0.0464542
0.926908
-0.0225392
0.566542
-0.00618278
0.25673
0.0589364
-0.00826295
0.13451
-0.0233812
0.418817
-0.0385273
0.756338
-0.0506602
1.08927
-0.062202
1.37804
-0.0759312
1.65558
-0.0907562
1.95768
-0.105267
2.31271
-0.117271
2.73208
-0.124186
3.22744
-0.123972
3.18582
-0.119327
2.63647
-0.112209
2.19394
-0.102943
1.83431
-0.0916069
1.52708
-0.0751327
1.23355
-0.0506897
0.902465
-0.0247181
0.54057
-0.00678975
0.238802
0.0521466
-0.010778
0.145288
-0.0308091
0.438848
-0.0516203
0.777149
-0.0681961
1.10585
-0.0832569
1.3931
-0.100272
1.67259
-0.117247
1.97466
-0.132913
2.32837
-0.144853
2.74402
-0.149941
3.23253
-0.14597
3.18185
-0.136666
2.62717
-0.126011
2.18329
-0.115914
1.82422
-0.103585
1.51475
-0.0839233
1.21389
-0.055954
0.874496
-0.02734
0.511956
-0.00739365
0.218856
0.044753
-0.0154567
0.160744
-0.0428061
0.466198
-0.0701896
0.804533
-0.0919071
1.12757
-0.110476
1.41167
-0.130339
1.69245
-0.149887
1.99421
-0.167313
2.3458
-0.179709
2.75642
-0.183498
3.23632
-0.177148
3.1755
-0.165929
2.61595
-0.153203
2.17056
-0.138068
1.80908
-0.120084
1.49677
-0.0957185
1.18953
-0.0633036
0.842081
-0.0308714
0.479524
-0.00812655
0.196111
0.0366264
-0.0196124
0.180357
-0.0557188
0.502304
-0.0924703
0.841284
-0.121059
1.15616
-0.145114
1.43572
-0.169667
1.71701
-0.191607
2.01615
-0.209248
2.36344
-0.219826
2.76699
-0.2201
3.23659
-0.209599
3.165
-0.19364
2.59999
-0.175899
2.15282
-0.158874
1.79206
-0.138965
1.47686
-0.109934
1.1605
-0.0719488
0.804095
-0.0345747
0.44215
-0.0087688
0.170305
0.0278576
-0.0327049
0.213062
-0.0818112
0.551411
-0.12834
0.887813
-0.163769
1.19158
-0.193746
1.4657
-0.221655
1.74492
-0.244729
2.03922
-0.261991
2.3807
-0.270557
2.77556
-0.266252
3.23229
-0.249745
3.14849
-0.22959
2.57983
-0.209655
2.13288
-0.187994
1.77039
-0.161203
1.45007
-0.125633
1.12493
-0.0813863
0.759849
-0.0384188
0.399183
-0.00921955
0.141106
0.0186381
-0.0473706
0.260432
-0.120815
0.624855
-0.182892
0.94989
-0.22621
1.2349
-0.261532
1.50102
-0.290606
1.77399
-0.311794
2.06041
-0.324845
2.39375
-0.326533
2.77725
-0.314659
3.22041
-0.292555
3.12639
-0.267492
2.55477
-0.241262
2.10665
-0.215234
1.74437
-0.185028
1.41986
-0.142798
1.0827
-0.0901834
0.707235
-0.0403354
0.349335
-0.00908645
0.109857
0.00955165
-0.0339245
0.294357
-0.0965898
0.68752
-0.15355
1.00685
-0.199951
1.2813
-0.24223
1.5433
-0.278955
1.81071
-0.312811
2.09427
-0.342367
2.42331
-0.363707
2.79859
-0.371233
3.22794
-0.358669
3.11382
-0.335474
2.53158
-0.308845
2.08002
-0.274973
1.71049
-0.22947
1.37436
-0.169042
1.02227
-0.0983704
0.636563
-0.0390088
0.289973
-0.00859624
0.0794441
0.000955411
-0.0125529
0.30691
-0.0470859
0.722053
-0.0883406
1.0481
-0.127041
1.32
-0.164851
1.58111
-0.198115
1.84398
-0.228729
2.12488
-0.253929
2.44851
-0.269218
2.81388
-0.267492
3.22621
-0.249886
3.09622
-0.223675
2.50536
-0.191042
2.04739
-0.156666
1.67612
-0.119317
1.33701
-0.0761626
0.979114
-0.0350502
0.59545
-0.0104937
0.265417
-0.00205597
0.0710064
-0.00110057
0.000509743
0.3064
-0.0236866
0.746249
-0.0528868
1.0773
-0.0828254
1.34994
-0.113727
1.61201
-0.143878
1.87413
-0.171241
2.15224
-0.193233
2.4705
-0.205978
2.82662
-0.205128
3.22536
-0.18585
3.07694
-0.155414
2.47493
-0.123631
2.01561
-0.0896635
1.64215
-0.0520548
1.2994
-0.0162218
0.943281
0.00555606
0.573672
0.00769427
0.263278
0.00244488
0.0762558
0.00134431
0.0010149
0.305385
-0.012343
0.759607
-0.0340218
1.09898
-0.0587639
1.37469
-0.0843869
1.63763
-0.109449
1.89919
-0.132748
2.17554
-0.151189
2.48894
-0.160379
2.83581
-0.154831
3.21981
-0.13396
3.05607
-0.107801
2.44877
-0.076839
1.98465
-0.0420031
1.60731
-0.0125223
1.26992
0.00914284
0.921616
0.0185649
0.56425
0.0138211
0.268022
0.00444243
0.0856345
0.00578674
0.00408939
0.301296
-0.00504198
0.768739
-0.0233653
1.11731
-0.0443194
1.39564
-0.0661486
1.65946
-0.0877834
1.92083
-0.108017
2.19578
-0.124242
2.50516
-0.133412
2.84498
-0.129965
3.21637
-0.111723
3.03783
-0.0846915
2.42174
-0.0543067
1.95426
-0.0260284
1.57904
0.00280776
1.24108
0.0225999
0.901824
0.0257533
0.561097
0.0165399
0.277235
0.00512133
0.0970531
0.0109081
0.00525287
0.296043
-0.000789351
0.774781
-0.0170992
1.13362
-0.0360005
1.41454
-0.0554969
1.67896
-0.0746036
1.93993
-0.0926766
2.21385
-0.107551
2.52004
-0.115416
2.85285
-0.110875
3.21182
-0.0947933
3.02175
-0.0739885
2.40093
-0.0468496
1.92712
-0.0164132
1.5486
0.00715801
1.21751
0.0225766
0.886405
0.0246137
0.55906
0.0152273
0.286622
0.00474749
0.107533
0.0156556
0.0038469
0.292196
-0.000610005
0.779238
-0.014202
1.14721
-0.0312998
1.43164
-0.0490357
1.6967
-0.0667676
1.95766
-0.0837037
2.23079
-0.0977471
2.53408
-0.105797
2.8609
-0.10494
3.21097
-0.0915939
3.0084
-0.0674055
2.37674
-0.0424123
1.90213
-0.0192751
1.52546
0.00456113
1.19368
0.0189579
0.872008
0.0197997
0.558218
0.0122263
0.294195
0.00375306
0.116006
0.0194086
0.00264999
0.289546
-0.000976431
0.782864
-0.0134191
1.15965
-0.0290714
1.44729
-0.0458422
1.71347
-0.0624208
1.97424
-0.0783293
2.24669
-0.0920166
2.54777
-0.100797
2.86968
-0.100268
3.21044
-0.0862223
2.99435
-0.0674
2.35792
-0.0455108
1.88024
-0.0204205
1.50037
-0.000626139
1.17388
0.0108748
0.860507
0.0135889
0.555504
0.00799822
0.299786
0.00247002
0.121534
0.0218786
0.000165361
0.28938
-0.00346248
0.786492
-0.0143805
1.17057
-0.0283695
1.46128
-0.0440316
1.72913
-0.0599752
1.99019
-0.0757524
2.26247
-0.0900614
2.56208
-0.100186
2.8798
-0.100734
3.21099
-0.090493
2.98411
-0.0722348
2.33966
-0.0499436
1.85795
-0.0293345
1.47976
-0.0100629
1.15461
0.002634
0.84781
0.0048151
0.553323
0.00344202
0.301159
0.00129912
0.123677
0.0231778
-0.000497355
0.289878
-0.00519617
0.791191
-0.0154055
1.18078
-0.0285749
1.47445
-0.0436038
1.74416
-0.05905
2.00563
-0.0746631
2.27808
-0.0890089
2.57642
-0.0992341
2.89003
-0.101625
3.21338
-0.0930926
2.97558
-0.0763275
2.3229
-0.0568673
1.83849
-0.0353037
1.4582
-0.019121
1.13843
-0.00830625
0.836996
-0.00217884
0.547196
-0.00155454
0.300535
-0.000331246
0.122454
0.0228465
-0.00204
0.291918
-0.0073821
0.796533
-0.0169576
1.19035
-0.0292202
1.48671
-0.0434524
1.75839
-0.0585587
2.02074
-0.0742276
2.29375
-0.0893475
2.59154
-0.101946
2.90263
-0.107656
3.21909
-0.0991884
2.96711
-0.0831725
2.30688
-0.0626794
1.818
-0.0450161
1.44054
-0.0274566
1.12087
-0.0147872
0.824326
-0.0084435
0.540852
-0.00381106
0.295902
-0.000966744
0.11961
0.0218798
-0.0034791
0.295397
-0.00884651
0.8019
-0.0181106
1.19962
-0.0299754
1.49858
-0.0437273
1.77214
-0.058453
2.03547
-0.0741695
2.30947
-0.0898898
2.60726
-0.102932
2.91567
-0.109048
3.2252
-0.103645
2.96171
-0.0887372
2.29198
-0.0716909
1.80095
-0.0513641
1.42021
-0.0352145
1.10472
-0.0225625
0.811674
-0.012805
0.531094
-0.0065406
0.289638
-0.00174514
0.114814
0.0201346
-0.00418262
0.299579
-0.0102265
0.807944
-0.0193308
1.20872
-0.0306356
1.50988
-0.0437759
1.78528
-0.0582366
2.04993
-0.0741217
2.32535
-0.0904946
2.62364
-0.105574
2.93075
-0.11591
3.23554
-0.112726
2.95852
-0.0982625
2.27751
-0.077148
1.77984
-0.0588367
1.4019
-0.0409635
1.08685
-0.0268098
0.797521
-0.0169185
0.521203
-0.00747092
0.28019
-0.00197052
0.109314
0.0181641
-0.00433739
0.303917
-0.010873
0.81448
-0.0199578
1.21781
-0.0310294
1.52095
-0.0438843
1.79814
-0.0580773
2.06412
-0.0739741
2.34125
-0.0908687
2.64053
-0.106893
2.94677
-0.117853
3.2465
-0.116923
2.9576
-0.104984
2.26557
-0.0874288
1.76228
-0.0645166
1.37899
-0.0463978
1.06873
-0.0313975
0.78252
-0.0180201
0.507826
-0.0082965
0.270467
-0.00196722
0.102984
0.0161969
-0.00440887
0.308326
-0.0114678
0.821539
-0.0205021
1.22684
-0.0311845
1.53164
-0.0435874
1.81054
-0.0575421
2.07807
-0.073512
2.35722
-0.0909438
2.65796
-0.108619
2.96445
-0.123195
3.26107
-0.126084
2.96048
-0.114931
2.25442
-0.0927793
1.74013
-0.0712497
1.35746
-0.0491395
1.04662
-0.0318412
0.765222
-0.0190138
0.494998
-0.00759803
0.259051
-0.00160662
0.096993
0.0145903
-0.00446008
0.312786
-0.0116349
0.828714
-0.0204972
1.2357
-0.0309797
1.54212
-0.0431664
1.82273
-0.0568814
2.09179
-0.0727971
2.37314
-0.0906432
2.67581
-0.10919
2.983
-0.124757
3.27664
-0.129956
2.96568
-0.120811
2.24527
-0.103821
1.72314
-0.0771213
1.33076
-0.0520753
1.02157
-0.0307476
0.743894
-0.0142169
0.478467
-0.00511901
0.249953
-0.000555054
0.092429
0.0140352
-0.00453469
0.31732
-0.0118129
0.835992
-0.0204696
1.24436
-0.0305754
1.55222
-0.0423337
1.83448
-0.0558016
2.10526
-0.0717242
2.38906
-0.089933
2.69402
-0.109656
3.00272
-0.128045
3.29503
-0.137193
2.97483
-0.130989
2.23907
-0.110106
1.70226
-0.0842944
1.30494
-0.0525145
0.989791
-0.025445
0.716825
-0.00727271
0.460295
0.000345543
0.242335
-0.00183393
0.0946085
0.0122013
-0.00452601
0.321847
-0.0116713
0.843137
-0.0200286
1.25272
-0.0298608
1.56206
-0.0413683
1.84599
-0.0545961
2.11848
-0.0703904
2.40485
-0.0887673
2.7124
-0.109047
3.023
-0.128664
3.31465
-0.139844
2.98601
-0.136857
2.23608
-0.122527
1.68793
-0.0921757
1.27459
-0.0552126
0.952828
-0.0157351
0.677347
0.0188299
0.42573
0.0334121
0.227753
0.0244651
0.103555
0.0366664
-0.00444182
0.326288
-0.011519
0.850214
-0.0196281
1.26083
-0.0290513
1.57148
-0.040098
1.85704
-0.0530203
2.13141
-0.0686717
2.42051
-0.0871565
2.73088
-0.10824
3.04408
-0.130107
3.33651
-0.144193
3.0001
-0.146472
2.23836
-0.130038
1.67149
-0.101998
1.24655
-0.0567762
0.907607
-0.00895415
0.629525
0.0372618
0.379514
0.0442594
0.220755
0.0193573
0.128458
0.0560237
-0.0042644
0.330553
-0.0111271
0.857077
-0.018901
1.2686
-0.0279864
1.58056
-0.0387614
1.86781
-0.051386
2.14403
-0.066794
2.43591
-0.0852664
2.74935
-0.106682
3.0655
-0.129492
3.35932
-0.146019
3.01662
-0.151268
2.24361
-0.144289
1.66451
-0.115613
1.21788
-0.069621
0.861615
0.00391684
0.555987
0.104675
0.278756
0.186826
0.138603
0.18032
0.134964
0.236343
-0.00413354
0.334686
-0.0109536
0.863897
-0.0186955
1.27634
-0.0277187
1.58959
-0.0385639
1.87866
-0.0515924
2.15706
-0.0678877
2.45221
-0.0879215
2.76939
-0.11207
3.08965
-0.13959
3.38684
-0.162157
3.03919
-0.173977
2.25543
-0.167765
1.6583
-0.144298
1.19441
-0.0933558
0.810673
-0.0394751
0.502107
-0.0809714
0.320252
-0.359396
0.417028
-0.938815
0.714383
0.898891
-1.60136
-0.00394789
0.338634
-0.0105518
0.870501
-0.0180479
1.28384
-0.0269257
1.59847
-0.0377244
1.88946
-0.0508683
2.1702
-0.0675419
2.46888
-0.0884575
2.7903
-0.114251
3.11544
-0.144884
3.41748
-0.172799
3.06711
-0.189729
2.27236
-0.201373
1.66994
-0.190449
1.18349
-0.16983
0.790054
-0.257009
0.589285
-0.692831
0.756075
-1.43538
1.15958
-2.04466
1.32367
1.21755
-2.36332
-0.00374551
0.34238
-0.0101359
0.876891
-0.0174396
1.29114
-0.0260873
1.60711
-0.0366711
1.90004
-0.0498499
2.18338
-0.0668846
2.48592
-0.0886286
2.81205
-0.11629
3.1431
-0.150845
3.45203
-0.184421
3.10068
-0.21191
2.29985
-0.225557
1.68359
-0.222283
1.18021
-0.309305
0.877076
-0.753194
1.03317
-1.53608
1.53896
-2.10593
1.72943
-2.34628
1.56401
1.33225
-2.46098
-0.00355485
0.345935
-0.00958714
0.882924
-0.0165602
1.29812
-0.024998
1.61555
-0.0354713
1.91051
-0.0487005
2.19661
-0.0659969
2.50321
-0.0884951
2.83454
-0.117795
3.1724
-0.155747
3.48998
-0.19626
3.14119
-0.228853
2.33245
-0.261155
1.71589
-0.345773
1.26483
-0.690945
1.22225
-1.43192
1.77415
-2.02374
2.13078
-2.26427
1.96997
-2.37797
1.67771
1.39705
-2.44277
-0.00329264
0.349227
-0.00898662
0.888618
-0.0156855
1.30481
-0.0238346
1.6237
-0.0341016
1.92078
-0.0472788
2.20979
-0.0647938
2.52073
-0.0879713
2.85772
-0.118973
3.2034
-0.160614
3.53163
-0.207295
3.18787
-0.253813
2.37896
-0.30091
1.76299
-0.481693
1.44561
-1.09074
1.83129
-1.78303
2.46645
-2.10635
2.45409
-2.25543
2.11905
-2.33778
1.76006
1.46282
-2.40355
-0.00322401
0.352451
-0.00879311
0.894187
-0.015406
1.31143
-0.0236052
1.6319
-0.0341658
1.93134
-0.0476637
2.22329
-0.0656731
2.53874
-0.0897788
2.88183
-0.122447
3.23607
-0.167641
3.57682
-0.221949
3.24218
-0.271146
2.42816
-0.363168
1.85501
-0.750578
1.83302
-1.48634
2.56706
-1.96215
2.94225
-2.16247
2.65441
-2.26897
2.22555
-2.34602
1.83711
1.52659
-2.40979
-0.00331685
0.355768
-0.00916649
0.900036
-0.0161969
1.31846
-0.0248009
1.6405
-0.0357862
1.94233
-0.0498846
2.23738
-0.0687676
2.55762
-0.094106
2.90717
-0.128788
3.27075
-0.177786
3.62582
-0.235303
3.2997
-0.301059
2.49392
-0.491571
2.04552
-1.04483
2.38629
-1.67484
3.19707
-1.95281
3.22023
-2.10021
2.80181
-2.21428
2.33962
-2.30786
1.93069
1.58846
-2.36973
-0.00336706
0.359135
-0.00949197
0.906161
-0.0168484
1.32581
-0.02594
1.64959
-0.0375211
1.95391
-0.0523366
2.2522
-0.0721095
2.57739
-0.0987289
2.93379
-0.135251
3.30728
-0.187772
3.67834
-0.252213
3.36414
-0.340593
2.5823
-0.621654
2.32658
-1.26116
3.02579
-1.75185
3.68776
-1.95939
3.42777
-2.10003
2.94245
-2.22407
2.46366
-2.33503
2.04165
1.64718
-2.39375
-0.00335236
0.362487
-0.00978187
0.912591
-0.0176969
1.33373
-0.0272935
1.65919
-0.0393285
1.96594
-0.0547831
2.26766
-0.0754829
2.59809
-0.103357
2.96166
-0.141823
3.34574
-0.197062
3.73358
-0.265188
3.43227
-0.391565
2.70867
-0.775588
2.71061
-1.40699
3.65719
-1.76254
4.0433
-1.93617
3.6014
-2.03866
3.04494
-2.12776
2.55276
-2.19566
2.10955
1.64021
-2.18869
-0.00327995
0.365767
-0.00996024
0.919271
-0.0182099
1.34198
-0.0283582
1.66934
-0.0411115
1.9787
-0.0573649
2.28391
-0.0789965
2.61973
-0.108164
2.99083
-0.148368
3.38595
-0.205946
3.79116
-0.28612
3.51244
-0.45654
2.8791
-0.905353
3.15942
-1.46072
4.21256
-1.72376
4.30635
-1.87669
3.75433
-1.97045
3.13869
-1.9727
2.55502
-1.90492
2.04177
1.60706
-1.87177
-0.00307391
0.368841
-0.0100029
0.9262
-0.0188499
1.35083
-0.0294627
1.67995
-0.0425346
1.99177
-0.0591537
2.30053
-0.0812055
2.64178
-0.110729
3.02035
-0.15137
3.42659
-0.207774
3.84756
-0.293466
3.59813
-0.498501
3.08413
-0.984789
3.64571
-1.42724
4.65501
-1.59442
4.47353
-1.66247
3.82239
-1.66755
3.14377
-1.52061
2.40808
-1.02091
1.54206
0.586148
-0.00263556
0.371477
-0.00982517
0.93339
-0.01897
1.35997
-0.0302771
1.69126
-0.0444926
2.00598
-0.0625249
2.31856
-0.0864451
2.6657
-0.118667
3.05257
-0.163117
3.47104
-0.226574
3.91102
-0.331273
3.70283
-0.584902
3.33776
-1.12029
4.1811
-1.48079
5.01551
-1.58104
4.57377
-1.57929
3.82063
-1.47676
3.04125
-1.23761
2.16893
-0.635613
0.940064
-0.0494651
-0.00212008
0.373597
-0.00928815
0.940558
-0.0191021
1.36978
-0.0311459
1.7033
-0.046109
2.02095
-0.0653251
2.33778
-0.0910674
2.69144
-0.125903
3.08741
-0.174784
3.51992
-0.243948
3.98018
-0.365715
3.8246
-0.67848
3.65052
-1.23641
4.73903
-1.5005
5.2796
-1.56015
4.63343
-1.53933
3.79981
-1.33734
2.83925
-0.787441
1.61903
-0.110878
0.263501
-0.160343
-0.00159946
0.375196
-0.00846976
0.947428
-0.0182598
1.37958
-0.0309132
1.71596
-0.046985
2.03702
-0.0676066
2.3584
-0.0952486
2.71908
-0.132875
3.12503
-0.185134
3.57218
-0.263004
4.05805
-0.41246
3.97406
-0.781991
4.02005
-1.31616
5.2732
-1.49475
5.45818
-1.52613
4.66481
-1.43873
3.71241
-1.10611
2.50663
-0.317387
0.830314
0.0261843
-0.0800707
-0.134158
-0.000607396
0.375804
-0.00673615
0.953557
-0.017105
1.38994
-0.0304916
1.72934
-0.0471102
2.05364
-0.0687812
2.38007
-0.098096
2.7484
-0.138008
3.16495
-0.193297
3.62747
-0.279363
4.14412
-0.452328
4.14702
-0.885154
4.45288
-1.35876
5.7468
-1.47737
5.5768
-1.48088
4.66832
-1.26131
3.49284
-0.694308
1.93963
-0.0637037
0.199709
0.0313455
-0.17512
-0.102813
0.000649931
0.375154
-0.00431076
0.958518
-0.01435
1.39998
-0.0281901
1.74318
-0.045642
2.07109
-0.0685799
2.40301
-0.099554
2.77937
-0.141738
3.20713
-0.199757
3.68549
-0.294907
4.23927
-0.497232
4.34934
-0.97911
4.93476
-1.35639
6.12408
-1.42159
5.642
-1.37852
4.62526
-1.0893
3.20361
-0.329949
1.18028
0.00260437
-0.132844
0.014261
-0.186776
-0.088552
0.00309693
0.372057
0.000174567
0.96144
-0.0106932
1.41085
-0.025146
1.75764
-0.0426562
2.0886
-0.06639
2.42674
-0.0984942
2.81147
-0.142216
3.25085
-0.202986
3.74626
-0.3059
4.34218
-0.529426
4.57287
-1.03644
5.44177
-1.31597
6.40361
-1.35775
5.68378
-1.22338
4.49088
-0.783707
2.76394
-0.077213
0.473786
0.0463265
-0.256384
0.0258809
-0.166331
-0.0626712
0.00505776
0.366999
0.00362881
0.962869
-0.0053478
1.41983
-0.0189568
1.77125
-0.0368366
2.10648
-0.0613952
2.4513
-0.0944672
2.84455
-0.139588
3.29597
-0.202312
3.80898
-0.312506
4.45237
-0.567663
4.82803
-1.05882
5.93292
-1.25214
6.59693
-1.26458
5.69623
-1.05034
4.27663
-0.467994
2.1816
-0.00997261
0.015765
0.00163339
-0.26799
0.0104042
-0.175102
-0.052267
0.00836306
0.358636
0.0096349
0.961597
0.00234644
1.42712
-0.0107637
1.78436
-0.0285026
2.12422
-0.0530904
2.47589
-0.086175
2.87763
-0.1312
3.341
-0.195389
3.87317
-0.311796
4.56878
-0.583437
5.09967
-1.03283
6.38231
-1.15685
6.72095
-1.14495
5.68433
-0.892055
4.02374
-0.271232
1.56078
-0.064495
-0.190972
-0.0353464
-0.297138
-0.0112963
-0.199152
-0.0635633
0.0119646
0.346672
0.0173318
0.95623
0.0130693
1.43138
0.0025095
1.79491
-0.0157634
2.14249
-0.0396553
2.49978
-0.0721166
2.91009
-0.116911
3.38579
-0.180956
3.93721
-0.299762
4.68759
-0.580092
5.38
-0.966061
6.76828
-1.03752
6.79241
-0.972488
5.61931
-0.695949
3.7472
-0.103654
0.968483
-0.0276628
-0.266963
-0.0253345
-0.299466
-0.00975098
-0.214735
-0.0733143
0.0179635
0.328708
0.0291441
0.945049
0.0275935
1.43293
0.0175421
1.80497
0.00104705
2.15899
-0.0206033
2.52143
-0.0512184
2.94071
-0.0936886
3.42826
-0.155433
3.99896
-0.273745
4.8059
-0.537669
5.64392
-0.849854
7.08047
-0.885335
6.82789
-0.790478
5.52445
-0.46223
3.41895
0.029355
0.476898
0.0455607
-0.283169
0.0283339
-0.28224
0.00907322
-0.195474
-0.064241
0.0244044
0.304304
0.0430177
0.926436
0.0469124
1.42903
0.0402665
1.81161
0.0277432
2.17151
0.00763687
2.54154
-0.0206137
2.96896
-0.0598419
3.46749
-0.117742
4.05686
-0.22783
4.91599
-0.457347
5.87344
-0.684986
7.30811
-0.728644
6.87155
-0.617912
5.41372
-0.287582
3.08862
0.0160519
0.173264
0.0272742
-0.294391
0.0336801
-0.288645
0.0184506
-0.180245
-0.0457904
0.0339236
0.27038
0.0629291
0.897431
0.0732416
1.41872
0.0707147
1.81414
0.0615719
2.18065
0.0445614
2.55855
0.0203676
2.99315
-0.0139264
3.50178
-0.0635303
4.10646
-0.155116
5.00757
-0.331567
6.04989
-0.48229
7.45883
-0.530714
6.91997
-0.450508
5.33351
-0.13859
2.7767
-0.0221291
0.0568034
-0.011945
-0.304576
0.0235092
-0.324099
0.041015
-0.197751
-0.00477541
0.0435024
0.226878
0.0856015
0.855331
0.105938
1.39839
0.110449
1.80963
0.106484
2.18462
0.0943234
2.57071
0.076701
3.01077
0.0504392
3.52805
0.00638527
4.15051
-0.0528618
5.06682
-0.170265
6.1673
-0.25004
7.5386
-0.274608
6.94454
-0.289673
5.34858
-0.169504
2.65653
-0.281532
0.168831
-0.246053
-0.340054
-0.121202
-0.448951
0.00953074
-0.328483
0.00475534
0.0551819
0.171696
0.11528
0.795234
0.149778
1.36389
0.162108
1.7973
0.16403
2.1827
0.1572
2.57754
0.14697
3.021
0.131484
3.54353
0.109893
4.17211
0.0783068
5.09841
0.0637518
6.18185
0.045236
7.55712
-0.0230961
7.01287
-0.186867
5.51235
-0.406035
2.8757
-0.693018
0.455814
-0.676538
-0.356534
-0.484448
-0.641041
-0.222544
-0.590387
-0.217789
0.058687
0.113009
0.144935
0.708985
0.199269
1.30955
0.225311
1.77126
0.236799
2.17121
0.238015
2.57632
0.236899
3.02212
0.233752
3.54668
0.232077
4.17378
0.236729
5.09375
0.332626
6.08595
0.435089
7.45466
0.413898
7.03406
0.305176
5.62107
-0.092521
3.2734
-0.595312
0.958605
-0.796693
-0.155154
-0.64715
-0.790584
-0.359398
-0.878138
-0.577187
0.0510356
0.0619732
0.174904
0.585116
0.262773
1.22168
0.305026
1.729
0.326412
2.14982
0.337591
2.56514
0.345428
3.01428
0.358676
3.53343
0.384844
4.14761
0.437331
5.04127
0.667164
5.85612
0.994747
7.12707
1.26619
6.76261
1.45343
5.43383
1.09533
3.6315
0.441566
1.61237
-0.0491007
0.335513
-0.285148
-0.554537
-0.236518
-0.926769
-0.813705
0.0364492
0.0255239
0.206511
0.415054
0.325687
1.10251
0.3977
1.65699
0.435546
2.11198
0.459132
2.54156
0.475341
2.99807
0.501797
3.50698
0.553705
4.09571
0.670091
4.92488
1.02761
5.4986
1.65756
6.49712
2.05507
6.36511
2.32218
5.16672
2.1842
3.76948
1.61293
2.18365
1.08613
0.862314
0.48797
0.043622
0.152468
-0.591267
-0.661237
0.0313706
-0.00584666
0.227698
0.218727
0.412005
0.918202
0.511948
1.55705
0.563942
2.05998
0.601466
2.50403
0.628725
2.97081
0.667243
3.46846
0.744678
4.01827
0.90018
4.76938
1.31963
5.07916
2.08581
5.73093
2.48472
5.9662
2.68789
4.96355
2.61842
3.83895
2.13518
2.66688
1.53355
1.46395
0.9936
0.583569
0.428687
-0.0263538
-0.23255
0.0283556
-0.0342023
0.180395
0.0666875
0.463668
0.634929
0.635253
1.38546
0.716018
1.97922
0.762647
2.4574
0.801359
2.9321
0.840611
3.4292
0.913307
3.94558
1.05684
4.62584
1.36269
4.77331
2.08725
5.00637
2.4434
5.61005
2.58415
4.8228
2.51307
3.91003
2.17523
3.00473
1.601
2.03818
1.00933
1.17523
0.415988
0.566991
0.183439
0.0110968
-0.0452991
0.0950829
-0.0172986
0.4038
0.326212
0.634668
1.15459
0.746184
1.8677
0.77942
2.42417
0.78973
2.92179
0.779125
3.43981
0.773463
3.95124
0.809575
4.58973
0.894443
4.68844
1.21787
4.68294
1.43971
5.38821
1.43961
4.8229
1.36252
3.98712
1.18875
3.17849
0.883575
2.34335
0.550121
1.50869
0.231912
0.885201
0.41535
-0.00278076
-0.0425183
0.0372398
-0.0573192
0.240364
0.123088
0.475433
0.919524
0.591012
1.75212
0.632093
2.38309
0.649344
2.90454
0.645901
3.44325
0.633924
3.96321
0.635307
4.58835
0.674051
4.6497
0.863798
4.4932
1.07743
5.17457
1.07476
4.82557
1.0049
4.05698
0.875203
3.30819
0.663931
2.55463
0.405538
1.76708
0.160961
1.12978
0.576312
0.0114753
-0.0539937
0.0497273
-0.0955711
0.147193
0.0256219
0.341247
0.72547
0.447857
1.64551
0.488205
2.34274
0.502075
2.89067
0.506001
3.43933
0.498833
3.97038
0.492104
4.59508
0.502465
4.63934
0.618799
4.37686
0.773074
5.0203
0.774667
4.82398
0.706909
4.12473
0.602703
3.4124
0.453677
2.70365
0.268336
1.95242
0.0968649
1.30125
0.673177
0.0328475
-0.0868412
0.0814281
-0.144152
0.119659
-0.0126092
0.220338
0.624791
0.300564
1.56529
0.342091
2.30121
0.359569
2.87319
0.371246
3.42765
0.374001
3.96763
0.372045
4.59703
0.366849
4.64453
0.428257
4.31546
0.536884
4.91167
0.53543
4.82543
0.473221
4.18694
0.39304
3.49258
0.289221
2.80747
0.162327
2.07932
0.0458129
1.41776
0.71899
0.0403942
-0.127235
0.0797705
-0.183528
0.062394
0.00476742
0.0741432
0.613042
0.129057
1.51037
0.176827
2.25344
0.210377
2.83964
0.237591
3.40044
0.259802
3.94542